# crys export
TITLE="FE Surface Data ASCII"
VARIABLES="X", "Y", "Z", "T", "Hw", "Hi", "HTC", "Beta", "TauX", "TauY", "TauZ", "Id"
ZONE T="WALL_2000"
NODES=720
ELEMENTS=720
DATAPACKING=BLOCK
ZONETYPE=FETRIANGLE
VARLOCATION=([4-12]=CELLCENTERED)
1.451931000000000083e+00 1.459816000000000003e+00 1.458733000000000057e+00 1.466364000000000001e+00 1.465065000000000062e+00 1.472436000000000078e+00 1.470958999999999905e+00 1.478066000000000102e+00 1.476447000000000065e+00 1.483286000000000104e+00 1.481557000000000013e+00 1.488126000000000060e+00 1.486315999999999971e+00 1.492612000000000050e+00 1.490747999999999962e+00 1.496771000000000074e+00 1.494876000000000094e+00 1.500626000000000015e+00 1.498720999999999970e+00 1.504199000000000064e+00 1.502304000000000084e+00 1.507511000000000045e+00 1.505641999999999925e+00 1.510580999999999952e+00 1.508752000000000093e+00 1.513427000000000078e+00 1.511649000000000020e+00 1.516064000000000078e+00 1.514348999999999945e+00 1.518507999999999969e+00 1.516863999999999990e+00 1.520772999999999930e+00 1.519206000000000056e+00 1.522871000000000086e+00 1.521387999999999963e+00 1.524815000000000031e+00 1.523419000000000079e+00 1.526616999999999891e+00 1.525309999999999944e+00 1.528286000000000033e+00 1.527069999999999927e+00 1.529832000000000081e+00 1.528707999999999956e+00 1.531263999999999958e+00 1.530230999999999897e+00 1.532589999999999897e+00 1.531646999999999981e+00 1.533817999999999904e+00 1.532963000000000076e+00 1.534955999999999987e+00 1.534186000000000050e+00 1.536008999999999958e+00 1.535322000000000076e+00 1.536985000000000046e+00 1.536377000000000104e+00 1.537889000000000062e+00 1.537355999999999945e+00 1.538726999999999956e+00 1.538264000000000076e+00 1.539501999999999926e+00 1.539106000000000085e+00 1.540219999999999922e+00 1.539887000000000006e+00 1.540883999999999920e+00 1.540610000000000035e+00 1.541498999999999953e+00 1.541279000000000066e+00 1.542067999999999994e+00 1.541898999999999909e+00 1.542594999999999938e+00 1.542472999999999983e+00 1.543080999999999925e+00 1.543002999999999902e+00 1.543530999999999986e+00 1.543490999999999946e+00 1.543943999999999983e+00 1.543935999999999975e+00 1.544318000000000080e+00 1.544327999999999923e+00 1.544645999999999963e+00 1.544651999999999914e+00 1.544910999999999923e+00 1.544898000000000104e+00 1.545104999999999951e+00 1.545068000000000108e+00 1.545233000000000079e+00 1.545152999999999999e+00 1.545287999999999995e+00 1.545147999999999966e+00 1.545269000000000004e+00 1.545053999999999927e+00 1.545174999999999965e+00 1.544875999999999916e+00 1.545007999999999937e+00 1.544627999999999890e+00 1.544778999999999902e+00 1.544329999999999981e+00 1.544505000000000017e+00 1.543968999999999925e+00 1.544168999999999903e+00 1.543558999999999903e+00 1.543787999999999938e+00 1.543112000000000039e+00 1.543371000000000048e+00 1.542626000000000053e+00 1.542917000000000094e+00 1.542097000000000051e+00 1.542424000000000017e+00 1.541522999999999977e+00 1.541889000000000065e+00 1.540899999999999936e+00 1.541307999999999900e+00 1.540221999999999980e+00 1.540677999999999992e+00 1.539487999999999968e+00 1.539994000000000085e+00 1.538691000000000031e+00 1.539252999999999982e+00 1.537827000000000055e+00 1.538450000000000095e+00 1.536891000000000007e+00 1.537579999999999947e+00 1.535876999999999937e+00 1.536637000000000031e+00 1.534778999999999893e+00 1.535616000000000092e+00 1.533590000000000009e+00 1.534510000000000041e+00 1.532302999999999971e+00 1.533312000000000008e+00 1.530909999999999993e+00 1.532014999999999905e+00 1.529401999999999928e+00 1.530610999999999944e+00 1.527771999999999908e+00 1.529090000000000060e+00 1.526008999999999949e+00 1.527443000000000106e+00 1.524102000000000068e+00 1.525660000000000016e+00 1.522040000000000060e+00 1.523727999999999971e+00 1.519811999999999941e+00 1.521636999999999906e+00 1.517403000000000057e+00 1.519373000000000085e+00 1.514799000000000007e+00 1.516920999999999964e+00 1.511984999999999912e+00 1.514264999999999972e+00 1.508944000000000063e+00 1.511389000000000093e+00 1.505657999999999941e+00 1.508275000000000032e+00 1.502107000000000081e+00 1.504901999999999962e+00 1.498269999999999991e+00 1.501249000000000056e+00 1.494123000000000090e+00 1.497292000000000067e+00 1.489643000000000050e+00 1.493006999999999973e+00 1.484801999999999955e+00 1.488366999999999996e+00 1.479570999999999970e+00 1.483341000000000021e+00 1.473918000000000061e+00 1.477897999999999934e+00 1.467808999999999919e+00 1.472002999999999950e+00 1.461206999999999923e+00 1.465619999999999923e+00 1.454072999999999949e+00 1.458706999999999976e+00 1.446361999999999925e+00 1.451221000000000094e+00 1.438028000000000084e+00 1.443114000000000008e+00 1.429019000000000039e+00 1.434336000000000055e+00 1.419281000000000015e+00 1.424830000000000041e+00 1.444620999999999933e+00 1.452757000000000076e+00 1.436766999999999905e+00 1.445146999999999959e+00 1.428328000000000042e+00 1.436943999999999999e+00 1.419259999999999966e+00 1.428101000000000065e+00 1.409513000000000016e+00 1.418570000000000109e+00 1.399038000000000004e+00 1.408300000000000107e+00 1.387779000000000096e+00 1.397234000000000087e+00 1.375675999999999899e+00 1.385310999999999959e+00 1.362662999999999958e+00 1.372463999999999906e+00 1.348667999999999978e+00 1.358621000000000079e+00 1.333614999999999995e+00 1.343703000000000092e+00 1.317422000000000093e+00 1.327630000000000088e+00 1.300002000000000102e+00 1.310313000000000061e+00 1.281260000000000066e+00 1.291655999999999915e+00 1.261622999999999939e+00 1.272083999999999993e+00 1.241916000000000020e+00 1.252421000000000006e+00 1.223155999999999910e+00 1.233684000000000003e+00 1.204679999999999973e+00 1.215208999999999984e+00 1.185988000000000042e+00 1.196498000000000062e+00 1.167451999999999934e+00 1.177921999999999914e+00 1.148608000000000073e+00 1.159016999999999964e+00 1.128999000000000086e+00 1.139326999999999979e+00 1.109215999999999980e+00 1.119442999999999966e+00 1.089348999999999901e+00 1.099456999999999907e+00 1.069542999999999910e+00 1.079514000000000085e+00 1.049690000000000012e+00 1.059506999999999977e+00 1.029667000000000110e+00 1.039312000000000014e+00 1.009703999999999935e+00 1.019161999999999901e+00 9.894969999999999599e-01 9.987519999999999731e-01 9.693500000000000449e-01 9.783880000000000354e-01 9.492709999999999759e-01 9.580800000000000427e-01 9.291220000000000034e-01 9.376889999999999947e-01 9.091249999999999609e-01 9.174379999999999757e-01 8.888530000000000042e-01 8.969000000000000306e-01 8.682050000000000045e-01 8.759730000000000016e-01 8.469210000000000349e-01 8.543960000000000443e-01 8.248060000000000391e-01 8.319720000000000448e-01 8.026370000000000449e-01 8.094869999999999566e-01 7.802679999999999616e-01 7.867929999999999646e-01 7.574750000000000094e-01 7.636659999999999560e-01 7.343950000000000200e-01 7.402450000000000419e-01 7.106799999999999784e-01 7.161790000000000100e-01 6.872970000000000468e-01 6.924439999999999484e-01 6.653369999999999562e-01 6.701430000000000442e-01 6.438169999999999726e-01 6.482850000000000001e-01 6.216770000000000351e-01 6.257989999999999942e-01 5.988329999999999487e-01 6.026040000000000285e-01 5.755900000000000460e-01 5.790070000000000494e-01 5.519319999999999782e-01 5.549920000000000408e-01 5.284250000000000336e-01 5.311329999999999663e-01 5.064969999999999750e-01 5.088690000000000158e-01 4.861340000000000106e-01 4.881869999999999821e-01 4.665429999999999855e-01 4.682899999999999840e-01 4.464839999999999920e-01 4.479250000000000176e-01 4.254680000000000129e-01 4.266010000000000080e-01 4.041919999999999957e-01 4.050199999999999911e-01 3.843389999999999862e-01 3.848809999999999731e-01 3.658850000000000158e-01 3.661599999999999855e-01 3.487469999999999737e-01 3.487739999999999729e-01 3.324710000000000165e-01 3.322660000000000058e-01 3.157099999999999906e-01 3.152769999999999739e-01 2.978279999999999816e-01 2.971679999999999877e-01 2.811569999999999903e-01 2.802879999999999816e-01 2.656629999999999825e-01 2.646029999999999771e-01 2.512730000000000241e-01 2.500399999999999845e-01 2.378989999999999994e-01 2.365089999999999970e-01 2.254790000000000127e-01 2.239500000000000102e-01 2.139250000000000040e-01 2.122719999999999885e-01 2.016350000000000087e-01 1.998640000000000139e-01 1.892570000000000086e-01 1.873779999999999890e-01 1.777549999999999963e-01 1.757839999999999958e-01 1.670770000000000033e-01 1.650270000000000070e-01 1.571569999999999911e-01 1.550420000000000131e-01 1.479509999999999992e-01 1.457829999999999959e-01 1.393169999999999964e-01 1.371090000000000086e-01 1.311609999999999998e-01 1.289240000000000108e-01 1.232229999999999992e-01 1.209680000000000061e-01 1.155719999999999942e-01 1.133089999999999931e-01 1.082550000000000040e-01 1.059930000000000039e-01 1.011119999999999935e-01 9.886000000000000343e-02 9.401099999999999735e-02 9.177899999999999947e-02 8.705000000000000238e-02 8.484600000000000475e-02 8.018999999999999739e-02 7.802299999999999514e-02 7.358199999999999463e-02 7.145799999999999375e-02 6.745800000000000407e-02 6.538399999999999768e-02 6.179099999999999870e-02 5.977199999999999874e-02 5.654399999999999704e-02 5.458400000000000057e-02 5.169499999999999790e-02 4.979800000000000199e-02 4.720900000000000096e-02 4.537999999999999673e-02 4.299300000000000344e-02 4.123500000000000082e-02 3.897199999999999970e-02 3.728700000000000070e-02 3.520899999999999724e-02 3.359899999999999692e-02 3.174199999999999938e-02 3.020899999999999974e-02 2.854800000000000046e-02 2.709299999999999903e-02 2.560600000000000029e-02 2.422900000000000054e-02 2.289899999999999922e-02 2.160000000000000114e-02 2.041000000000000106e-02 1.918900000000000119e-02 1.812899999999999928e-02 1.698699999999999863e-02 1.604599999999858570e-02 1.498099999987667630e-02 1.415599999519540943e-02 1.316799988579158559e-02 1.239999838599069315e-02 1.148698197167669251e-02 1.056785888038344612e-02 9.730150047795534801e-03 8.782130898155165663e-03 8.010747388193390980e-03 7.128842843504193394e-03 6.396524191343827721e-03 5.559029666081015050e-03 4.865880143426691042e-03 4.100738170705249021e-03 3.455207927909656300e-03 2.722188469350246987e-03 2.045627008485075005e-03 1.257898677864853791e-03 5.083296982947716879e-04 -2.858869772320467555e-04 -1.029008913591853954e-03 -1.734419385283435646e-03 -2.369110529125559132e-03 -2.926265903753825625e-03 -3.401688622587284178e-03 -3.816932268484477583e-03 -4.160109758657363002e-03 -4.500043919645205920e-03 -4.808003638746895583e-03 -5.190995168746613368e-03 -5.598909029957503496e-03 -6.098508714269000597e-03 -6.594716570827194140e-03 -7.080449532508859868e-03 -7.453541990830400525e-03 -7.742579622110504906e-03 -7.911495687226021908e-03 -8.086639809661280362e-03 -8.248677838623753172e-03 -8.525402212638866217e-03 -8.856236218165444013e-03 -9.294313518494889612e-03 -9.781033470265139071e-03 -1.026526873581487878e-02 -1.077173998544585752e-02 -1.111674074187445765e-02 -1.145637912708506040e-02 -1.152197880997977465e-02 -1.152900099102613547e-02 -1.115275514522614218e-02 -1.061782168404391477e-02 -9.715370184309055079e-03 -8.907498870113456785e-03 -8.086685177632859517e-03 -7.490904324848275501e-03 -6.887492224713516291e-03 -6.871432061672582206e-03 -6.961201939827510281e-03 -7.124048251877854523e-03 -7.162443252443377942e-03 -7.041997379393041649e-03 -7.135719721640507336e-03 -6.958882327384896538e-03 -6.997821524102118898e-03 -6.833102403531729485e-03 -6.864743283962647206e-03 -6.673309092312647642e-03 -6.508574955544880677e-03 -6.498710834871038178e-03 -6.637792797083250963e-03 -6.945319071708969637e-03 -7.176271173929740094e-03 -7.577239985178413177e-03 -7.762501031918937755e-03 -8.177470519477545233e-03 -8.377089830007199145e-03 -9.135468680610351819e-03 -9.799699246086063242e-03 -1.138990327565220055e-02 -1.301440639456104796e-02 -1.544645410964098908e-02 -1.731738471218383438e-02 -1.939286449255754607e-02 -1.986530279801521429e-02 -1.993987717710818744e-02 -1.852401458391062655e-02 -1.744078186068984820e-02 -1.538815673120123156e-02 -1.428378425948109362e-02 -1.222040585482535822e-02 -1.117362973811928707e-02 -9.361332665198252370e-03 -8.827884892277855153e-03 -7.358780827118014366e-03 -7.140421551743942295e-03 -6.167867800079920339e-03 -6.438464049836278846e-03 -5.643265474585715084e-03 -5.680535086181475596e-03 -4.507890470806786426e-03 -4.340056480980603558e-03 -3.095467374933686278e-03 -2.992204215839353379e-03 -1.741566246617777796e-03 -1.699057449609439434e-03 -3.931548164077962359e-04 -3.828249840049388164e-04 8.640156472891837199e-04 8.504429188977094154e-04 2.176064273076885446e-03 2.101024830136832486e-03 3.167763948425625885e-03 2.569445195610126249e-03 3.258313656081299192e-03 2.566295349433227267e-03 3.347834166656715824e-03 2.806948887076758485e-03 3.508413935172427500e-03 2.953924654542433408e-03 3.058194314328136626e-03 2.450096077596828400e-03 3.227918750234441171e-03 2.990324382557201562e-03 3.469420828358755690e-03 2.421985112032917428e-03 3.442628511511322542e-03 2.818791960293748778e-03 3.893226117059481531e-03 3.338694962999458511e-03 4.344844084335501740e-03 3.476844842286221007e-03 4.752876377864059115e-03 3.994651780091020531e-03 5.242828818637720704e-03 4.259468304215195331e-03 5.591753858159510988e-03 4.518443751886118062e-03 6.077214525513545927e-03 5.141467686890520417e-03 6.955272757797560136e-03 6.027374119582026846e-03 8.023007199058995384e-03 7.047462558502614813e-03 9.205531551344134714e-03 8.166666049347102302e-03 1.049352239893518689e-02 9.384615243028996898e-03 1.189462923460385055e-02 1.070912413916651901e-02 1.341562625859830590e-02 1.214752504343183902e-02 1.506576422536255212e-02 1.370953164436397413e-02 1.685599878926918177e-02 1.540962155355087709e-02 1.880611034624513067e-02 1.727087000209032858e-02 2.094204387338195056e-02 1.931895341862534948e-02 2.328568162624876717e-02 2.157825231933018992e-02 2.586389552412650394e-02 2.408011424629974417e-02 2.872466257310754556e-02 2.689325672249121349e-02 3.195430009529701826e-02 3.009637322820569658e-02 3.541281914453370261e-02 3.350658187462986215e-02 3.867583603833172484e-02 3.671425799785552752e-02 4.174717216393084018e-02 3.974631100895480162e-02 4.512366099167745143e-02 4.304169347548536528e-02 4.869781161361805277e-02 4.649684493080776665e-02 5.243170654008261905e-02 5.013145024532446314e-02 5.638771818863255736e-02 5.402452588151290119e-02 6.065124070982121779e-02 5.824953724653184062e-02 6.527922024552725022e-02 6.285493576794272397e-02 7.031555891521766577e-02 6.787801932868946231e-02 7.579705470637007614e-02 7.336060585152527624e-02 8.176930122218052654e-02 7.933879445503347339e-02 8.825615366711790644e-02 8.583098260601758345e-02 9.528202763878583503e-02 9.286246872151925069e-02 1.028449893253446240e-01 1.003933470728640420e-01 1.109201690724501838e-01 1.084556160865203372e-01 1.195820023070623683e-01 1.171419557189466720e-01 1.289465014132418208e-01 1.265750283067258453e-01 1.391213968121410849e-01 1.368331768390765313e-01 1.501700764374893082e-01 1.479753743210591999e-01 1.621540401305032464e-01 1.600608111890945706e-01 1.751414689567551697e-01 1.731645232562500636e-01 1.892132450239350228e-01 1.873663779239999050e-01 2.044592164893810904e-01 2.027605764072328010e-01 2.209777826624941544e-01 2.194436794245840927e-01 2.388785115250706970e-01 2.375260216422979687e-01 2.582753072889319435e-01 2.571209513444949191e-01 2.792939356551548680e-01 2.783559064270466066e-01 2.996660150454576454e-01 2.989483901922140308e-01 3.199191521040461450e-01 3.194284690785156311e-01 3.406044344229383070e-01 3.403530427480697673e-01 3.601323358128210583e-01 3.601193536752957947e-01 3.788250334846551270e-01 3.790523670453752048e-01 3.976252549620641341e-01 3.981026925307788455e-01 4.166478026466267082e-01 4.173828174129975421e-01 4.362198729144382003e-01 4.372248423068465506e-01 4.566275258162810213e-01 4.579138594001133655e-01 4.781549706993400428e-01 4.797369956055890783e-01 4.999519995401201511e-01 5.018339999676726393e-01 5.201589999984813639e-01 5.223319999999693763e-01 5.387889999999999624e-01 5.412430000000000296e-01 5.569410000000000194e-01 5.596750000000000336e-01 5.754569999999999963e-01 5.784749999999999615e-01 5.940790000000000237e-01 5.973840000000000261e-01 6.131569999999999521e-01 6.167510000000000492e-01 6.338169999999999638e-01 6.377119999999999456e-01 6.561770000000000103e-01 6.603839999999999710e-01 6.778509999999999813e-01 6.823590000000000488e-01 6.978400000000000158e-01 7.026299999999999768e-01 7.194840000000000124e-01 7.245610000000000106e-01 7.413779999999999815e-01 7.467380000000000129e-01 7.615739999999999732e-01 7.671940000000000426e-01 7.807960000000000456e-01 7.866610000000000547e-01 7.999739999999999629e-01 8.060749999999999860e-01 8.194900000000000517e-01 8.258189999999999698e-01 8.392730000000000468e-01 8.458200000000000163e-01 8.595770000000000355e-01 8.663330000000000197e-01 8.815530000000000310e-01 8.885129999999999972e-01 9.053240000000000176e-01 9.124830000000000441e-01 9.310570000000000235e-01 9.384069999999999911e-01 9.567550000000000221e-01 9.642779999999999685e-01 9.804829999999999934e-01 9.881539999999999768e-01 1.003084000000000087e+00 1.010880999999999919e+00 1.027546000000000070e+00 1.035455000000000014e+00 1.054003000000000023e+00 1.062009999999999899e+00 1.082640999999999964e+00 1.090730999999999895e+00 1.109947999999999935e+00 1.118098999999999954e+00 1.135186000000000028e+00 1.143373999999999890e+00 1.158504999999999896e+00 1.166709999999999914e+00 1.180063000000000084e+00 1.188263999999999987e+00 1.199985999999999997e+00 1.208166000000000073e+00 1.218409999999999993e+00 1.226548999999999889e+00 1.235443000000000069e+00 1.243525999999999909e+00 1.251201000000000008e+00 1.259211999999999998e+00 1.265775000000000095e+00 1.273698999999999915e+00 1.279263000000000039e+00 1.287085999999999952e+00 1.291741000000000028e+00 1.299449999999999994e+00 1.303439999999999932e+00 1.311023000000000049e+00 1.314570999999999934e+00 1.322014999999999940e+00 1.325371000000000077e+00 1.332662000000000013e+00 1.336200000000000054e+00 1.343323000000000045e+00 1.347317000000000098e+00 1.354254000000000069e+00 1.359053999999999984e+00 1.365787000000000084e+00 1.371756999999999893e+00 1.378263999999999934e+00 1.385062999999999933e+00 1.391327999999999898e+00 1.397370000000000001e+00 1.403394000000000030e+00 1.408752999999999922e+00 1.414538000000000073e+00 