# crys export
TITLE="FE Surface Data ASCII"
VARIABLES="X", "Y", "Z", "T", "Hw", "Hi", "HTC", "Beta", "TauX", "TauY", "TauZ"
ZONE T="WALL_2000"
NODES=720
ELEMENTS=720
DATAPACKING=BLOCK
ZONETYPE=FETRIANGLE
VARLOCATION=([4-11]=CELLCENTERED)
1.4519310000000001 1.459816 1.4587330000000001 1.466364 1.4650650000000001 1.4724360000000001 1.4709589999999999 1.4780660000000001 1.4764470000000001 1.4832860000000001 1.481557 1.4881260000000001 1.486316 1.492612 1.490748 1.4967710000000001 1.4948760000000001 1.500626 1.498721 1.5041990000000001 1.5023040000000001 1.507511 1.5056419999999999 1.510581 1.5087520000000001 1.5134270000000001 1.511649 1.5160640000000001 1.5143489999999999 1.518508 1.516864 1.5207729999999999 1.5192060000000001 1.5228710000000001 1.521388 1.524815 1.5234190000000001 1.5266169999999999 1.5253099999999999 1.528286 1.5270699999999999 1.5298320000000001 1.528708 1.531264 1.5302309999999999 1.5325899999999999 1.531647 1.5338179999999999 1.5329630000000001 1.534956 1.534186 1.536009 1.5353220000000001 1.536985 1.5363770000000001 1.5378890000000001 1.5373559999999999 1.538727 1.5382640000000001 1.5395019999999999 1.5391060000000001 1.5402199999999999 1.539887 1.5408839999999999 1.54061 1.541499 1.5412790000000001 1.542068 1.5418989999999999 1.5425949999999999 1.542473 1.5430809999999999 1.5430029999999999 1.543531 1.5434909999999999 1.543944 1.543936 1.5443180000000001 1.5443279999999999 1.544646 1.5446519999999999 1.5449109999999999 1.5448980000000001 1.545105 1.5450680000000001 1.5452330000000001 1.545153 1.545288 1.545148 1.545269 1.5450539999999999 1.545175 1.5448759999999999 1.5450079999999999 1.5446279999999999 1.5447789999999999 1.54433 1.544505 1.5439689999999999 1.5441689999999999 1.5435589999999999 1.5437879999999999 1.543112 1.543371 1.5426260000000001 1.5429170000000001 1.5420970000000001 1.542424 1.541523 1.5418890000000001 1.5408999999999999 1.5413079999999999 1.540222 1.540678 1.539488 1.5399940000000001 1.538691 1.539253 1.5378270000000001 1.5384500000000001 1.536891 1.5375799999999999 1.5358769999999999 1.536637 1.5347789999999999 1.5356160000000001 1.53359 1.53451 1.532303 1.533312 1.53091 1.5320149999999999 1.5294019999999999 1.5306109999999999 1.5277719999999999 1.5290900000000001 1.5260089999999999 1.5274430000000001 1.5241020000000001 1.52566 1.5220400000000001 1.523728 1.5198119999999999 1.5216369999999999 1.5174030000000001 1.5193730000000001 1.514799 1.516921 1.5119849999999999 1.514265 1.5089440000000001 1.5113890000000001 1.5056579999999999 1.508275 1.5021070000000001 1.504902 1.49827 1.5012490000000001 1.4941230000000001 1.4972920000000001 1.4896430000000001 1.493007 1.484802 1.488367 1.479571 1.483341 1.4739180000000001 1.4778979999999999 1.4678089999999999 1.472003 1.4612069999999999 1.4656199999999999 1.4540729999999999 1.458707 1.4463619999999999 1.4512210000000001 1.4380280000000001 1.443114 1.429019 1.4343360000000001 1.419281 1.42483 1.4446209999999999 1.4527570000000001 1.4367669999999999 1.445147 1.428328 1.436944 1.41926 1.4281010000000001 1.409513 1.4185700000000001 1.399038 1.4083000000000001 1.3877790000000001 1.3972340000000001 1.3756759999999999 1.385311 1.362663 1.3724639999999999 1.348668 1.3586210000000001 1.333615 1.3437030000000001 1.3174220000000001 1.3276300000000001 1.3000020000000001 1.3103130000000001 1.2812600000000001 1.2916559999999999 1.2616229999999999 1.272084 1.241916 1.252421 1.2231559999999999 1.233684 1.20468 1.215209 1.185988 1.1964980000000001 1.1674519999999999 1.1779219999999999 1.1486080000000001 1.159017 1.1289990000000001 1.139327 1.109216 1.119443 1.0893489999999999 1.0994569999999999 1.0695429999999999 1.0795140000000001 1.04969 1.059507 1.0296670000000001 1.039312 1.0097039999999999 1.0191619999999999 0.98949699999999996 0.99875199999999997 0.96935000000000004 0.97838800000000004 0.94927099999999998 0.95808000000000004 0.929122 0.93768899999999999 0.90912499999999996 0.91743799999999998 0.888853 0.89690000000000003 0.868205 0.875973 0.84692100000000003 0.85439600000000004 0.82480600000000004 0.83197200000000004 0.80263700000000004 0.80948699999999996 0.78026799999999996 0.78679299999999996 0.75747500000000001 0.76366599999999996 0.73439500000000002 0.74024500000000004 0.71067999999999998 0.71617900000000001 0.68729700000000005 0.69244399999999995 0.66533699999999996 0.67014300000000004 0.64381699999999997 0.648285 0.62167700000000004 0.62579899999999999 0.59883299999999995 0.60260400000000003 0.57559000000000005 0.57900700000000005 0.55193199999999998 0.55499200000000004 0.52842500000000003 0.53113299999999997 0.50649699999999998 0.50886900000000002 0.48613400000000001 0.48818699999999998 0.46654299999999999 0.46828999999999998 0.44648399999999999 0.44792500000000002 0.42546800000000001 0.42660100000000001 0.404192 0.40501999999999999 0.38433899999999999 0.38488099999999997 0.36588500000000002 0.36615999999999999 0.34874699999999997 0.34877399999999997 0.33247100000000002 0.33226600000000001 0.31570999999999999 0.31527699999999997 0.29782799999999998 0.29716799999999999 0.28115699999999999 0.28028799999999998 0.26566299999999998 0.26460299999999998 0.25127300000000002 0.25003999999999998 0.237899 0.236509 0.22547900000000001 0.22395000000000001 0.213925 0.21227199999999999 0.20163500000000001 0.19986400000000001 0.18925700000000001 0.18737799999999999 0.177755 0.175784 0.167077 0.16502700000000001 0.15715699999999999 0.15504200000000001 0.147951 0.145783 0.139317 0.13710900000000001 0.131161 0.12892400000000001 0.123223 0.12096800000000001 0.11557199999999999 0.11330899999999999 0.108255 0.105993 0.10111199999999999 0.098860000000000003 0.094010999999999997 0.091778999999999999 0.087050000000000002 0.084846000000000005 0.080189999999999997 0.078022999999999995 0.073581999999999995 0.071457999999999994 0.067458000000000004 0.065383999999999998 0.061790999999999999 0.059771999999999999 0.056543999999999997 0.054584000000000001 0.051694999999999991 0.04979799999999996 0.047208999999999779 0.04537999999999906 0.042992999999996215 0.041234999999985325 0.038971999999944447 0.037286999999799481 0.035208999999291543 0.033598999997624023 0.031741999992237764 0.030208999975898342 0.028547999927276795 0.02709299979107891 0.025605999417874361 0.024228998452773425 0.022898996019722225 0.021599990215874131 0.020409976742362206 0.019188947061943618 0.01812888360130363 0.016986754431765359 0.016045499233264943 0.014980017340477046 0.014154148204465819 0.013164626673609847 0.012394207966296521 0.011477306656834574 0.010552272146065581 0.0097058429389443278 0.0087464044509294424 0.0079627808493848654 0.0070712294499840457 0.006333598669995816 0.0054910464935523338 0.0047817437485730393 0.0039798889639369841 0.0032797454933115805 0.0024949573489176998 0.0017943640733837246 0.0010271065025258916 0.00033800091250472573 -0.00036887688482980841 -0.0010193122842253606 -0.0016415825948219785 -0.0022191057194871134 -0.0027528764454751984 -0.0032434647759822335 -0.00370743443305064 -0.0041232648451958306 -0.0045414109481121054 -0.0049064661838338509 -0.0052918602116430397 -0.0056250556520908331 -0.0059759263962838767 -0.0062901018785877253 -0.0066258392696641232 -0.0069526600041336824 -0.0073411420476372329 -0.0077565198963004756 -0.0082895266899442495 -0.0088769605577864071 -0.0096060056650611025 -0.010397140257030738 -0.011290927205202894 -0.012233700917901592 -0.013154714752539607 -0.014085292493888927 -0.014845098589664738 -0.015532244764253723 -0.015858424705003871 -0.015993760526605956 -0.015670864374178341 -0.015215124051194375 -0.014439815398005118 -0.0136684458178214 -0.012746433358556054 -0.011881214883912349 -0.011013746209088713 -0.010192309057151345 -0.0094911919700908422 -0.0088126752390401217 -0.0082751479505948217 -0.0077707540622388915 -0.0074374317626468879 -0.0070918607931214081 -0.0069356638649784169 -0.0067577135448372025 -0.0067522679777071212 -0.0067697337940230773 -0.0069220266329155077 -0.0071712005410496452 -0.0075430150848487774 -0.008080919292620628 -0.0086681224495574177 -0.0095598242801472853 -0.010423436033776193 -0.011729314114437492 -0.012917486205459497 -0.014638979854899956 -0.016120897173898561 -0.018126721278975359 -0.019658356245432183 -0.02164882119902083 -0.022863218519098647 -0.024363131094085572 -0.024711573739990143 -0.025214327366265204 -0.0243351362920179 -0.02368137076306193 -0.021713828713856548 -0.020332570048984186 -0.017853634180951747 -0.016360129167816824 -0.013928862840691544 -0.012768162017698323 -0.010755707277558021 -0.010093918582802451 -0.0086494281732220988 -0.0084094763677695257 -0.0072854501571090434 -0.0072533432100785099 -0.0061947705404727885 -0.0062117590848535329 -0.005153093351508529 -0.0052060749775031953 -0.0040982643764662817 -0.0042002670121358129 -0.0030593304061239928 -0.0032282105847674788 -0.0021742367520642845 -0.0024359900736977886 -0.0014061763121235543 -0.0017603922261735807 -0.00074906591698549799 -0.0011700704368229893 -0.00022677115861043467 -0.00068843776369246286 0.00023328049394681489 -0.00025806222946320417 0.00065593054086619611 0.00012783235361195607 0.0010170439127029237 0.00043307163734139335 0.0013082726448832487 0.00065907339513677967 0.0015471380450593772 0.00084685476366847564 0.0017951433184025935 0.0010683641661997723 0.0021166870943395678 0.0013862811503658171 0.0025646116210942156 0.0018393176768802381 0.0031589725840517123 0.0024312647105891282 0.0038948582094275688 0.003149878410224737 0.004753742760610173 0.003976106413501033 0.0057207778847739857 0.0048970793752760111 0.0067855279772729782 0.0059073698649064173 0.0079433704162697582 0.0070034720644920412 0.0091952600639011242 0.0081882145599410164 0.010545616428491462 0.0094653716003680107 0.012002596750318931 0.010842417864083385 0.01357313371149668 0.012327727482163866 0.015268029121819255 0.013932564058684049 0.017098972108229849 0.015670251551611499 0.0190820171867251 0.017557886062697356 0.021236638761851934 0.019616835319202115 0.023584587548046019 0.021875810153307321 0.026158758586527341 0.024367860867289298 0.028997025153076356 0.027134913210008927 0.032145846008053369 0.030220286929194342 0.035455207444035498 0.033465957022703857 0.038552135498324452 0.036505033717922374 0.041453029847292461 0.039360671314973346 0.044655541909749366 0.042514959265368329 0.048143312562610001 0.045946779965691048 0.051910309410019388 0.049654525096164318 0.055961814774581231 0.053649220572362426 0.060321901868608641 0.057958410002104263 0.065018227208818669 0.062615224083996432 0.070089235511968204 0.067656558419645796 0.075572490188198838 0.073124560593195817 0.08151594880408565 0.079065362386896085 0.087963916148817156 0.085520351521795643 0.09495219054585044 0.092519360943254345 0.10250761562139556 0.10008474249473596 0.11065620788311488 0.10824741371794004 0.11943532337386641 0.11705244355769853 0.12890281522736202 0.12656325750404368 0.13912990517085622 0.13685278496692416 0.1501944329327653 0.14800046453443802 0.16217772012339365 0.16008235695856901 0.17516076761478627 0.17318185541915354 0.1892288305304835 0.18738052406531788 0.20447209822978302 0.20277237989425073 0.22098850713045337 0.21945329999711621 0.23888685791841832 0.23753298603238179 0.2582807520285571 0.25712495869060875 0.27929670679873408 0.27835787112649518 0.299667562028884 0.29894982162949929 0.31992056548397407 0.31942983842670802 0.34060564840222718 0.34035402702026341 0.36013302869617658 0.36011973623167925 0.37882510901136734 0.37905220955025293 0.39762501186877863 0.39810255034467396 0.4166478371698551 0.41738290095786362 0.43621975779806393 0.43722443175186321 0.45662694549183341 0.45791332189513428 0.47815458746316675 0.47973676336211796 0.49995187545655329 0.50183394116781077 0.52015897716846549 0.52233199506396366 0.53878900232795623 0.54124300432655092 0.55694100397368917 0.55967500291192251 0.57545700188355142 0.5784750011083617 0.59407900060595764 0.59738400030841454 0.61315700014732344 0.61675100006633676 0.63381700002804453 0.63771200001145467 0.65617700000444013 0.66038400000168318 0.67785100000062171 0.6823590000002161 0.69784000000007362 0.70263000000002251 0.7194840000000069 0.72456100000000223 0.7413780000000002 0.74673800000000001 0.76157399999999997 0.76719400000000004 0.78079600000000005 0.78666100000000005 0.79997399999999996 0.80607499999999999 0.81949000000000005 0.82581899999999997 0.83927300000000005 0.84582000000000002 0.85957700000000004 0.86633300000000002 0.88155300000000003 0.888513 0.90532400000000002 0.91248300000000004 0.93105700000000002 0.93840699999999999 0.95675500000000002 0.96427799999999997 0.98048299999999999 0.98815399999999998 1.0030840000000001 1.0108809999999999 1.0275460000000001 1.035455 1.054003 1.0620099999999999 1.082641 1.0907309999999999 1.1099479999999999 1.118099 1.135186 1.1433739999999999 1.1585049999999999 1.1667099999999999 1.1800630000000001 1.188264 1.199986 1.2081660000000001 1.21841 1.2265489999999999 1.2354430000000001 1.2435259999999999 1.251201 1.259212 1.2657750000000001 1.2736989999999999 1.279263 1.287086 1.291741 1.29945 1.3034399999999999 1.311023 1.3145709999999999 1.3220149999999999 1.3253710000000001 1.332662 1.3362000000000001 1.343323 1.3473170000000001 1.3542540000000001 1.359054 1.3657870000000001 1.3717569999999999 1.3782639999999999 1.3850629999999999 1.3913279999999999 1.39737 1.403394 1.4087529999999999 1.4145380000000001 
0.018717000000000001 0.017323000000000002 0.017495 0.016136000000000001 0.016347 0.015025999999999999 0.015266 0.013986 0.014251 0.013013 0.013299999999999999 0.012106 0.012411999999999999 0.011264 0.011580999999999999 0.010481000000000001 0.010803999999999999 0.0097520000000000003 0.010081 0.0090779999999999993 0.0094109999999999992 0.0084569999999999992 0.0087910000000000002 0.0078869999999999999 0.0082159999999999993 0.0073610000000000004 0.0076839999999999999 0.0068789999999999997 0.007195 0.0064380000000000001 0.006744 0.0060350000000000004 0.0063280000000000003 0.0056649999999999999 0.0059420000000000002 0.0053249999999999999 0.0055849999999999997 0.005012 0.0052570000000000004 0.0047260000000000002 0.0049519999999999998 0.0044619999999999998 0.0046699999999999997 0.0042180000000000004 0.0044070000000000003 0.0039919999999999999 0.004163 0.0037820000000000002 0.0039360000000000003 0.003588 0.003725 0.003408 0.0035300000000000002 0.0032399999999999998 0.003349 0.0030860000000000002 0.0031809999999999998 0.0029420000000000002 0.0030249999999999999 0.0028080000000000002 0.0028809999999999999 0.0026840000000000002 0.002748 0.0025690000000000001 0.0026259999999999999 0.0024620000000000002 0.0025140000000000002 0.002362 0.0024109999999999999 0.0022690000000000002 0.0023180000000000002 0.002183 0.002232 0.002101 0.0021450000000000002 0.002016 0.0020370000000000002 0.0019090000000000001 0.0018810000000000001 0.0017570000000000001 0.001668 0.0015499999999999999 0.001402 0.0012979999999999999 0.0010889999999999999 0.001005 0.000745 0.00068599999999999998 0.00038900000000000002 0.000357 4.8000000000000001e-05 4.1e-05 -0.000261 -0.00024899999999999998 -0.00051599999999999997 -0.00049200000000000003 -0.00069700000000000003 -0.000669 -0.00080599999999999997 -0.00077800000000000005 -0.00084199999999999998 -0.00081899999999999996 -0.00084000000000000003 -0.00082200000000000003 -0.00082600000000000002 -0.00081599999999999999 -0.00080900000000000004 -0.00080500000000000005 -0.00078899999999999999 -0.00079000000000000001 -0.00076800000000000002 -0.00077300000000000003 -0.00074399999999999998 -0.000754 -0.00071900000000000002 -0.00073200000000000001 -0.00069300000000000004 -0.00070799999999999997 -0.00066399999999999999 -0.00068199999999999999 -0.00063299999999999999 -0.00065399999999999996 -0.00059999999999999995 -0.00062399999999999999 -0.00056400000000000005 -0.00059000000000000003 -0.00052400000000000005 -0.00055400000000000002 -0.00048299999999999998 -0.00051500000000000005 -0.000437 -0.00047199999999999998 -0.000388 -0.000426 -0.00033500000000000001 -0.00037599999999999998 -0.00027799999999999998 -0.000321 -0.00021599999999999999 -0.00026200000000000003 -0.00014899999999999999 -0.00019799999999999999 -7.7999999999999999e-05 -0.00012899999999999999 -9.9999999999999995e-07 -5.3999999999999998e-05 8.2999999999999998e-05 2.9e-05 0.000173 0.000118 0.00027 0.000214 0.00037199999999999999 0.00031599999999999998 0.00047899999999999999 0.00042299999999999998 0.00059000000000000003 0.00053499999999999999 0.00070200000000000004 0.00064899999999999995 0.00081599999999999999 0.00076400000000000003 0.00092699999999999998 0.00087799999999999998 0.0010319999999999999 0.00098700000000000003 0.0011310000000000001 0.001091 0.0012229999999999999 0.001189 0.001302 0.0012780000000000001 0.001371 0.001358 0.0014319999999999999 0.0014350000000000001 0.001487 0.001508 0.001534 0.0015759999999999999 0.001565 0.0016299999999999999 0.020018999999999999 0.018593999999999999 0.021403999999999999 0.019949999999999999 0.022877999999999999 0.021398 0.024444 0.022943000000000002 0.026109 0.024591999999999999 0.027882000000000001 0.026353000000000001 0.029772 0.028235 0.031784 0.030244 0.033912999999999999 0.032376000000000002 0.036153999999999999 0.034623000000000001 0.038503999999999997 0.036984999999999997 0.040964 0.039461999999999997 0.043534999999999997 0.042055000000000002 0.046216 0.044762000000000003 0.048930000000000001 0.047507000000000001 0.051563999999999999 0.050175999999999998 0.053978999999999999 0.052630999999999997 0.056264000000000002 0.054960000000000002 0.058484000000000001 0.057225999999999999 0.060594000000000002 0.059385 0.062645000000000006 0.061488000000000001 0.064687999999999996 0.063584000000000002 0.066657999999999995 0.065609000000000001 0.068544999999999995 0.067551 0.070334999999999995 0.069398000000000001 0.072038000000000005 0.071157999999999999 0.073663999999999993 0.072842000000000004 0.075194999999999998 0.074430999999999997 0.076654 0.075946 0.078019000000000005 0.077366000000000004 0.079287999999999997 0.078689999999999996 0.080472000000000002 0.079927999999999999 0.081557000000000004 0.081063999999999997 0.082565 0.082122000000000001 0.083502999999999994 0.083108000000000001 0.084377999999999995 0.084028000000000005 0.085196999999999995 0.084889999999999993 0.085930000000000006 0.085662000000000002 0.086578000000000002 0.086347999999999994 0.087148000000000003 0.086953000000000003 0.087636000000000006 0.087472999999999995 0.088045999999999999 0.087912000000000004 0.088362999999999997 0.088256000000000001 0.088572999999999999 0.088489999999999999 0.088689000000000004 0.088626999999999997 0.088716000000000003 0.088673000000000002 0.088653999999999997 0.088625999999999996 0.088500999999999996 0.088484999999999994 0.088253999999999999 0.088247999999999993 0.087919999999999998 0.087922 0.087523000000000004 0.087529999999999997 0.087068000000000006 0.087078000000000003 0.086539000000000005 0.086550000000000002 0.085905999999999996 0.085916000000000006 0.085151000000000004 0.085155999999999996 0.084296999999999997 0.084296999999999997 0.083415000000000003 0.083406999999999995 0.08251 0.082493999999999998 0.081584000000000004 0.081557000000000004 0.080614000000000005 0.080575999999999995 0.079521999999999995 0.079468999999999998 0.078266000000000002 0.078195000000000001 0.077011999999999997 0.076923000000000005 0.075773999999999994 0.075663999999999995 0.074554999999999996 0.074424000000000004 0.073344999999999994 0.073193999999999995 0.072137000000000007 0.071964 0.070924000000000001 0.070729 0.069536000000000001 0.069318000000000005 0.068053000000000002 0.067809999999999995 0.066603999999999997 0.066336000000000006 0.065182000000000004 0.064889000000000002 0.063777 0.063459000000000002 0.062384000000000002 0.062040999999999999 0.060990000000000003 0.060623999999999997 0.059583999999999998 0.059193000000000003 0.058125999999999997 0.057709000000000003 0.05663 0.056188000000000002 0.055111 0.054643999999999998 0.053533999999999998 0.053043 0.051874999999999998 0.051360000000000003 0.050155999999999999 0.049619000000000003 0.048369000000000002 0.047809999999999998 0.046557000000000001 0.045977999999999998 0.044788000000000001 0.044191000000000001 0.043062000000000003 0.042448 0.041376000000000003 0.040744000000000002 0.039725000000000031 0.039078000000000127 0.038106000000000549 0.03744500000000222 0.036489000000008716 0.035817000000032843 0.034851000000120771 0.034169000000423382 0.033223000001452979 0.032534000004734387 0.031636000015029746 0.030942000045354391 0.030095000133023558 0.029397000371526472 0.028604001006609515 0.027903002602051259 0.027162006511827097 0.026462015575365701 0.025768036036079835 0.025068079859585677 0.024414171030252268 0.023716351586515066 0.023091698964724985 0.022397337817199985 0.021791461134791971 0.021104377094913071 0.020471344584741136 0.019794997383220034 0.018972981155055992 0.018319633164399836 0.017432532448900893 0.016814861772017228 0.015993219055864379 0.015424493714641897 0.014673132279243745 0.014170319117005442 0.013482996875243408 0.013059735867020151 0.012445553402716619 0.012103098442045834 0.011546841579689996 0.01126676909137549 0.010721100024325709 0.01047026538948977 0.0099030237036135827 0.0096463098738442301 0.0090433616219268275 0.0087663875620161962 0.0081348829824532797 0.0078461026531394164 0.0072004517499166393 0.0069193634799712966 0.0062684775813489392 0.0060055943096093854 0.0053436379898546289 0.0051025820264394188 0.0044360215647752492 0.0042323503385506018 0.0035917938312290338 0.0034537908211734213 0.0028642004214594306 0.0027994376958364849 0.0022405275202055631 0.0022103344798406897 0.001616576817639524 0.0015597865470298772 0.00088077805865095088 0.00077008858387899197 9.4444044613396371e-06 -0.00010316165829718439 -0.00083856199663624059 -0.00092115903985242036 -0.0016611084429898849 -0.0017518093086959508 -0.0024753751369232372 -0.0025099132498191817 -0.0031675129833978869 -0.0031268856551497051 -0.0037220820176173883 -0.0036279076834763923 -0.0042309850532883204 -0.0041071450987611004 -0.0047466276462823425 -0.0046056880685188912 -0.0052701210789629291 -0.005113267347778238 -0.0058017737446494841 -0.00561696358980345 -0.0063582877401807342 -0.0061344219563297222 -0.0068958683851868654 -0.0066173189159091364 -0.0072856089737996545 -0.0069408285301064999 -0.0075739780959818105 -0.0071762009371852753 -0.007805542820835073 -0.007407980489950671 -0.0081068612406967645 -0.0078387085162177038 -0.0087630843775027677 -0.0088117952511073058 -0.010128302515457261 -0.010621022501519495 -0.012322619227595992 -0.013110923684956548 -0.014935205191846421 -0.015678033032908073 -0.017378827203974347 -0.017992196054618079 -0.019535753207860704 -0.019876591670797264 -0.020984934428158731 -0.020857859293500505 -0.02149166278125933 -0.021001372081681138 -0.021392555815431358 -0.020843458817136971 -0.021391009475477799 -0.021114400846097624 -0.022150844869393789 -0.022234684756148326 -0.023547740202273196 -0.023762579686490908 -0.024943463860943201 -0.024984600419730555 -0.025757943144227882 -0.025388724187309891 -0.025609879054920667 -0.024815286511040771 -0.024581815722978646 -0.023573826350921128 -0.023125406658606587 -0.022134732703325801 -0.021645195829198476 -0.020765004214961337 -0.020367287436938747 -0.019624734170915887 -0.019436086280229407 -0.018860078923719777 -0.018958881483164984 -0.018562119314890508 -0.018968498601520216 -0.018718113583486552 -0.019371969002842417 -0.019189637831361288 -0.01995518470375883 -0.019771656027771901 -0.020555643220914469 -0.020312925159950777 -0.021054023552934592 -0.020711840313442934 -0.021383310842406057 -0.020937405430661794 -0.021556030846910899 -0.021035435278701945 -0.021644524138137753 -0.021087697164555236 -0.021726994709349697 -0.021166047913034735 -0.021861040065435218 -0.021309553468045205 -0.022076201628847415 -0.021538217578479003 -0.022386572248202761 -0.021862185301181475 -0.022794519060756795 -0.022282056601369185 -0.023299994787276995 -0.022801938321957815 -0.023901367405665615 -0.023421677370627978 -0.02460567270374538 -0.024149476354182492 -0.025416271494973709 -0.024991676397352395 -0.026339481199582057 -0.02595401993929838 -0.027380177643292588 -0.027039661752764583 -0.028538906423070883 -0.028249116767197553 -0.029814601556102473 -0.029569910866370425 -0.031190026854558048 -0.030977717563518074 -0.032624187019442509 -0.032417636842871571 -0.03405737664674597 -0.033830122540988286 -0.035393595413843938 -0.035124510644849234 -0.036496604723112946 -0.036161798662882098 -0.037308515420431759 -0.036895583850123467 -0.037892395976855515 -0.037427125131607127 -0.038360419689909019 -0.037884768174630677 -0.038822388990263038 -0.038366951911073782 -0.039345983551141391 -0.038920276767362837 -0.039944698382281513 -0.039547117240536368 -0.040603847397015606 -0.040220358232929646 -0.041286145494599871 -0.04088648740094019 -0.041918195453611078 -0.041444441111661887 -0.042369190535419869 -0.041750341637637266 -0.042498099426909276 -0.041688520244735648 -0.04225233976162137 -0.04128929841959085 -0.041757692409954368 -0.040762444144316561 -0.04128600903899704 -0.040397077695265439 -0.04109983046948891 -0.040392563620684538 -0.041306968832345581 -0.040769345440320952 -0.041846818844858441 -0.041417790506840559 -0.04258559399116274 -0.042209612888764424 -0.043418836791105857 -0.04306815157947478 -0.044303613384713933 -0.043972758726933757 -0.045232726804584074 -0.044924765183812346 -0.046216051686019166 -0.045933493244676105 -0.047261106225986997 -0.047005669740627337 -0.048366502048148768 -0.04813956431507916 -0.049518634673323216 -0.049322689999301839 -0.050715693395568015 -0.050549074266392095 -0.051794643356730209 -0.051654111132985146 -0.052782071716389593 -0.05266936662350144 -0.0537194114387212 -0.053629354949753912 -0.054519889048487355 -0.054447589136099234 -0.055193707721024221 -0.055137754640691969 -0.055786683355744889 -0.055745152101289504 -0.056304292192601392 -0.056273966213630552 -0.056752209563773408 -0.056730984872929296 -0.057135133102461606 -0.057119602941468277 -0.057453075821303566 -0.057440239336093032 -0.057689653912458491 -0.057674811078824759 -0.057823394734922005 -0.057800973493473774 -0.057855390742079287 -0.057821358287575113 -0.057791743728915358 -0.057742386349086648 -0.057628193225038732 -0.057559092686685652 -0.057366042791697401 -0.057276018809695517 -0.056997007909120094 -0.0568830031645449 -0.056494001199451659 -0.056354000442691975 -0.055859000155722274 -0.055692000054217428 -0.055165000018532001 -0.054969000006009149 -0.054426000001926385 -0.054197000000559797 -0.053522000000153766 -0.053257000000041847 -0.052530000000011075 -0.052228000000002835 -0.051522000000000727 -0.051180000000000156 -0.050467000000000067 -0.050083000000000003 -0.049315999999999999 -0.048889000000000002 -0.048044999999999997 -0.047573999999999998 -0.046656999999999997 -0.046143000000000003 -0.045131999999999999 -0.044574000000000003 -0.043374999999999997 -0.042775000000000001 -0.041383000000000003 -0.040743000000000001 -0.039148000000000002 -0.038469999999999997 -0.036830000000000002 -0.036116000000000002 -0.034598999999999998 -0.033854000000000002 -0.032370999999999997 -0.031599000000000002 -0.029855 -0.029059999999999999 -0.027042 -0.026231000000000001 -0.023938999999999998 -0.023116000000000001 -0.020955999999999999 -0.020128 -0.018193999999999998 -0.01737 -0.015644000000000002 -0.014831 -0.013298000000000001 -0.012501999999999999 -0.011148 -0.010377000000000001 -0.0091940000000000008 -0.0084550000000000007 -0.0074380000000000002 -0.0067369999999999999 -0.0058770000000000003 -0.0052180000000000004 -0.0045069999999999997 -0.0038939999999999999 -0.0033249999999999998 -0.0027599999999999999 -0.002323 -0.0018090000000000001 -0.0014779999999999999 -0.0010150000000000001 -0.00076900000000000004 -0.000357 -0.00017799999999999999 0.000184 0.00031399999999999999 0.00062799999999999998 0.00071699999999999997 0.00098700000000000003 0.001039 0.001268 0.0012819999999999999 0.001474 0.0014480000000000001 0.001604 0.001534 0.001658 0.0015690000000000001 0.0016620000000000001 