# crys export
TITLE="FE Surface Data ASCII"
VARIABLES="X", "Y", "Z", "T", "Hw", "Hi", "HTC", "Beta", "TauX", "TauY", "TauZ"
ZONE T="WALL_2000"
NODES=720
ELEMENTS=720
DATAPACKING=BLOCK
ZONETYPE=FETRIANGLE
VARLOCATION=([4-11]=CELLCENTERED)
1.4519310000000001 1.459816 1.4587330000000001 1.466364 1.4650650000000001 1.4724360000000001 1.4709589999999999 1.4780660000000001 1.4764470000000001 1.4832860000000001 1.481557 1.4881260000000001 1.486316 1.492612 1.490748 1.4967710000000001 1.4948760000000001 1.500626 1.498721 1.5041990000000001 1.5023040000000001 1.507511 1.5056419999999999 1.510581 1.5087520000000001 1.5134270000000001 1.511649 1.5160640000000001 1.5143489999999999 1.518508 1.516864 1.5207729999999999 1.5192060000000001 1.5228710000000001 1.521388 1.524815 1.5234190000000001 1.5266169999999999 1.5253099999999999 1.528286 1.5270699999999999 1.5298320000000001 1.528708 1.531264 1.5302309999999999 1.5325899999999999 1.531647 1.5338179999999999 1.5329630000000001 1.534956 1.534186 1.536009 1.5353220000000001 1.536985 1.5363770000000001 1.5378890000000001 1.5373559999999999 1.538727 1.5382640000000001 1.5395019999999999 1.5391060000000001 1.5402199999999999 1.539887 1.5408839999999999 1.54061 1.541499 1.5412790000000001 1.542068 1.5418989999999999 1.5425949999999999 1.542473 1.5430809999999999 1.5430029999999999 1.543531 1.5434909999999999 1.543944 1.543936 1.5443180000000001 1.5443279999999999 1.544646 1.5446519999999999 1.5449109999999999 1.5448980000000001 1.545105 1.5450680000000001 1.5452330000000001 1.545153 1.545288 1.545148 1.545269 1.5450539999999999 1.545175 1.5448759999999999 1.5450079999999999 1.5446279999999999 1.5447789999999999 1.54433 1.544505 1.5439689999999999 1.5441689999999999 1.5435589999999999 1.5437879999999999 1.543112 1.543371 1.5426260000000001 1.5429170000000001 1.5420970000000001 1.542424 1.541523 1.5418890000000001 1.5408999999999999 1.5413079999999999 1.540222 1.540678 1.539488 1.5399940000000001 1.538691 1.539253 1.5378270000000001 1.5384500000000001 1.536891 1.5375799999999999 1.5358769999999999 1.536637 1.5347789999999999 1.5356160000000001 1.53359 1.53451 1.532303 1.533312 1.53091 1.5320149999999999 1.5294019999999999 1.5306109999999999 1.5277719999999999 1.5290900000000001 1.5260089999999999 1.5274430000000001 1.5241020000000001 1.52566 1.5220400000000001 1.523728 1.5198119999999999 1.5216369999999999 1.5174030000000001 1.5193730000000001 1.514799 1.516921 1.5119849999999999 1.514265 1.5089440000000001 1.5113890000000001 1.5056579999999999 1.508275 1.5021070000000001 1.504902 1.49827 1.5012490000000001 1.4941230000000001 1.4972920000000001 1.4896430000000001 1.493007 1.484802 1.488367 1.479571 1.483341 1.4739180000000001 1.4778979999999999 1.4678089999999999 1.472003 1.4612069999999999 1.4656199999999999 1.4540729999999999 1.458707 1.4463619999999999 1.4512210000000001 1.4380280000000001 1.443114 1.429019 1.4343360000000001 1.419281 1.42483 1.4446209999999999 1.4527570000000001 1.4367669999999999 1.445147 1.428328 1.436944 1.41926 1.4281010000000001 1.409513 1.4185700000000001 1.399038 1.4083000000000001 1.3877790000000001 1.3972340000000001 1.3756759999999999 1.385311 1.362663 1.3724639999999999 1.348668 1.3586210000000001 1.333615 1.3437030000000001 1.3174220000000001 1.3276300000000001 1.3000020000000001 1.3103130000000001 1.2812600000000001 1.2916559999999999 1.2616229999999999 1.272084 1.241916 1.252421 1.2231559999999999 1.233684 1.20468 1.215209 1.185988 1.1964980000000001 1.1674519999999999 1.1779219999999999 1.1486080000000001 1.159017 1.1289990000000001 1.139327 1.109216 1.119443 1.0893489999999999 1.0994569999999999 1.0695429999999999 1.0795140000000001 1.04969 1.059507 1.0296670000000001 1.039312 1.0097039999999999 1.0191619999999999 0.98949699999999996 0.99875199999999997 0.96935000000000004 0.97838800000000004 0.94927099999999998 0.95808000000000004 0.929122 0.93768899999999999 0.90912499999999996 0.91743799999999998 0.888853 0.89690000000000003 0.868205 0.875973 0.84692100000000003 0.85439600000000004 0.82480600000000004 0.83197200000000004 0.80263700000000004 0.80948699999999996 0.78026799999999996 0.78679299999999996 0.75747500000000001 0.76366599999999996 0.73439500000000002 0.74024500000000004 0.71067999999999998 0.71617900000000001 0.68729700000000005 0.69244399999999995 0.66533699999999996 0.67014300000000004 0.64381699999999997 0.648285 0.62167700000000004 0.62579899999999999 0.59883299999999995 0.60260400000000003 0.57559000000000005 0.57900700000000005 0.55193199999999998 0.55499200000000004 0.52842500000000003 0.53113299999999997 0.50649699999999998 0.50886900000000002 0.48613400000000001 0.48818699999999998 0.46654299999999999 0.46828999999999998 0.44648399999999999 0.44792500000000002 0.42546800000000001 0.42660100000000001 0.404192 0.40501999999999999 0.38433899999999999 0.38488099999999997 0.36588500000000002 0.36615999999999999 0.34874699999999997 0.34877399999999997 0.33247100000000002 0.33226600000000001 0.31570999999999999 0.31527699999999997 0.29782799999999998 0.29716799999999999 0.28115699999999999 0.28028799999999998 0.26566299999999998 0.26460299999999998 0.25127300000000002 0.25003999999999998 0.237899 0.236509 0.22547900000000001 0.22395000000000001 0.213925 0.21227199999999999 0.20163500000000001 0.19986400000000001 0.18925700000000001 0.18737799999999999 0.177755 0.175784 0.167077 0.16502700000000001 0.15715699999999999 0.15504200000000001 0.147951 0.145783 0.139317 0.13710900000000001 0.131161 0.12892400000000001 0.123223 0.12096800000000001 0.11557199999999999 0.11330899999999999 0.108255 0.105993 0.10111199999999999 0.098860000000000003 0.094010999999999997 0.091778999999999999 0.087050000000000002 0.084846000000000005 0.080189999999999997 0.078022999999999995 0.073581999999999995 0.071457999999999994 0.067458000000000004 0.065383999999999998 0.061790999999999999 0.059771999999999999 0.056543999999999997 0.054584000000000001 0.051694999999999998 0.049798000000000002 0.047209000000000001 0.045379999999999997 0.042993000000000003 0.041235000000000001 0.038972 0.037287000000000001 0.035208999999999997 0.033598999999999997 0.031741999999999999 0.030209 0.028548 0.027092999999999999 0.025606 0.024229000000000001 0.022898999999999999 0.021600000000000001 0.020410000000000001 0.019189000000000001 0.018128999999999999 0.016986999999999999 0.016045999999998586 0.014980999999876676 0.014155999995195409 0.013167999885791586 0.012399998385990693 0.011486981971676693 0.010567858880383446 0.0097301500477955348 0.0087821308981551657 0.008010747388193391 0.0071288428435041934 0.0063965241913438277 0.0055590296660810151 0.004865880143426691 0.004100738170705249 0.0034552079279096563 0.002722188469350247 0.002045627008485075 0.0012578986778648538 0.00050832969829477169 -0.00028588697723204676 -0.001029008913591854 -0.0017344193852834356 -0.0023691105291255591 -0.0029262659037538256 -0.0034016886225872842 -0.0038169322684844776 -0.004160109758657363 -0.0045000439196452059 -0.0048080036387468956 -0.0051909951687466134 -0.0055989090299575035 -0.0060985087142690006 -0.0065947165708271941 -0.0070804495325088599 -0.0074535419908304005 -0.0077425796221105049 -0.0079114956872260219 -0.0080866398096612804 -0.0082486778386237532 -0.0085254022126388662 -0.008856236218165444 -0.0092943135184948896 -0.0097810334702651391 -0.010265268735814879 -0.010771739985445858 -0.011116740741874458 -0.01145637912708506 -0.011521978809979775 -0.011529000991026135 -0.011152755145226142 -0.010617821684043915 -0.0097153701843090551 -0.0089074988701134568 -0.0080866851776328595 -0.0074909043248482755 -0.0068874922247135163 -0.0068714320616725822 -0.0069612019398275103 -0.0071240482518778545 -0.0071624432524433779 -0.0070419973793930416 -0.0071357197216405073 -0.0069588823273848965 -0.0069978215241021189 -0.0068331024035317295 -0.0068647432839626472 -0.0066733090923126476 -0.0065085749555448807 -0.0064987108348710382 -0.006637792797083251 -0.0069453190717089696 -0.0071762711739297401 -0.0075772399851784132 -0.0077625010319189378 -0.0081774705194775452 -0.0083770898300071991 -0.0091354686806103518 -0.0097996992460860632 -0.011389903275652201 -0.013014406394561048 -0.015446454109640989 -0.017317384712183834 -0.019392864492557546 -0.019865302798015214 -0.019939877177108187 -0.018524014583910627 -0.017440781860689848 -0.015388156731201232 -0.014283784259481094 -0.012220405854825358 -0.011173629738119287 -0.0093613326651982524 -0.0088278848922778552 -0.0073587808271180144 -0.0071404215517439423 -0.0061678678000799203 -0.0064384640498362788 -0.0056432654745857151 -0.0056805350861814756 -0.0045078904708067864 -0.0043400564809806036 -0.0030954673749336863 -0.0029922042158393534 -0.0017415662466177778 -0.0016990574496094394 -0.00039315481640779624 -0.00038282498400493882 0.00086401564728918372 0.00085044291889770942 0.0021760642730768854 0.0021010248301368325 0.0031677639484256259 0.0025694451956101262 0.0032583136560812992 0.0025662953494332273 0.0033478341666567158 0.0028069488870767585 0.0035084139351724275 0.0029539246545424334 0.0030581943143281366 0.0024500960775968284 0.0032279187502344412 0.0029903243825572016 0.0034694208283587557 0.0024219851120329174 0.0034426285115113225 0.0028187919602937488 0.0038932261170594815 0.0033386949629994585 0.0043448440843355017 0.003476844842286221 0.0047528763778640591 0.0039946517800910205 0.0052428288186377207 0.0042594683042151953 0.005591753858159511 0.0045184437518861181 0.0060772145255135459 0.0051414676868905204 0.0069552727577975601 0.0060273741195820268 0.0080230071990589954 0.0070474625585026148 0.0092055315513441347 0.0081666660493471023 0.010493522398935187 0.0093846152430289969 0.011894629234603851 0.010709124139166519 0.013415626258598306 0.012147525043431839 0.015065764225362552 0.013709531644363974 0.016855998789269182 0.015409621553550877 0.018806110346245131 0.017270870002090329 0.020942043873381951 0.019318953418625349 0.023285681626248767 0.02157825231933019 0.025863895524126504 0.024080114246299744 0.028724662573107546 0.026893256722491213 0.031954300095297018 0.030096373228205697 0.035412819144533703 0.033506581874629862 0.038675836038331725 0.036714257997855528 0.04174717216393084 0.039746311008954802 0.045123660991677451 0.043041693475485365 0.048697811613618053 0.046496844930807767 0.052431706540082619 0.050131450245324463 0.056387718188632557 0.054024525881512901 0.060651240709821218 0.058249537246531841 0.06527922024552725 0.062854935767942724 0.070315558915217666 0.067878019328689462 0.075797054706370076 0.073360605851525276 0.081769301222180527 0.079338794455033473 0.088256153667117906 0.085830982606017583 0.095282027638785835 0.092862468721519251 0.10284498932534462 0.10039334707286404 0.11092016907245018 0.10845561608652034 0.11958200230706237 0.11714195571894667 0.12894650141324182 0.12657502830672585 0.13912139681214108 0.13683317683907653 0.15017007643748931 0.1479753743210592 0.16215404013050325 0.16006081118909457 0.17514146895675517 0.17316452325625006 0.18921324502393502 0.1873663779239999 0.20445921648938109 0.2027605764072328 0.22097778266249415 0.21944367942458409 0.2388785115250707 0.23752602164229797 0.25827530728893194 0.25712095134449492 0.27929393565515487 0.27835590642704661 0.29966601504545765 0.29894839019221403 0.31991915210404615 0.31942846907851563 0.34060443442293831 0.34035304274806977 0.36013233581282106 0.36011935367529579 0.37882503348465513 0.3790523670453752 0.39762525496206413 0.39810269253077885 0.41664780264662671 0.41738281741299754 0.4362198729144382 0.43722484230684655 0.45662752581628102 0.45791385940011337 0.47815497069934004 0.47973699560558908 0.49995199954012015 0.50183399996767264 0.52015899999848136 0.52233199999996938 0.53878899999999996 0.54124300000000003 0.55694100000000002 0.55967500000000003 0.575457 0.57847499999999996 0.59407900000000002 0.59738400000000003 0.61315699999999995 0.61675100000000005 0.63381699999999996 0.63771199999999995 0.65617700000000001 0.66038399999999997 0.67785099999999998 0.68235900000000005 0.69784000000000002 0.70262999999999998 0.71948400000000001 0.72456100000000001 0.74137799999999998 0.74673800000000001 0.76157399999999997 0.76719400000000004 0.78079600000000005 0.78666100000000005 0.79997399999999996 0.80607499999999999 0.81949000000000005 0.82581899999999997 0.83927300000000005 0.84582000000000002 0.85957700000000004 0.86633300000000002 0.88155300000000003 0.888513 0.90532400000000002 0.91248300000000004 0.93105700000000002 0.93840699999999999 0.95675500000000002 0.96427799999999997 0.98048299999999999 0.98815399999999998 1.0030840000000001 1.0108809999999999 1.0275460000000001 1.035455 1.054003 1.0620099999999999 1.082641 1.0907309999999999 1.1099479999999999 1.118099 1.135186 1.1433739999999999 1.1585049999999999 1.1667099999999999 1.1800630000000001 1.188264 1.199986 1.2081660000000001 1.21841 1.2265489999999999 1.2354430000000001 1.2435259999999999 1.251201 1.259212 1.2657750000000001 1.2736989999999999 1.279263 1.287086 1.291741 1.29945 1.3034399999999999 1.311023 1.3145709999999999 1.3220149999999999 1.3253710000000001 1.332662 1.3362000000000001 1.343323 1.3473170000000001 1.3542540000000001 1.359054 1.3657870000000001 1.3717569999999999 1.3782639999999999 1.3850629999999999 1.3913279999999999 1.39737 1.403394 1.4087529999999999 1.4145380000000001 
0.018717000000000001 0.017323000000000002 0.017495 0.016136000000000001 0.016347 0.015025999999999999 0.015266 0.013986 0.014251 0.013013 0.013299999999999999 0.012106 0.012411999999999999 0.011264 0.011580999999999999 0.010481000000000001 0.010803999999999999 0.0097520000000000003 0.010081 0.0090779999999999993 0.0094109999999999992 0.0084569999999999992 0.0087910000000000002 0.0078869999999999999 0.0082159999999999993 0.0073610000000000004 0.0076839999999999999 0.0068789999999999997 0.007195 0.0064380000000000001 0.006744 0.0060350000000000004 0.0063280000000000003 0.0056649999999999999 0.0059420000000000002 0.0053249999999999999 0.0055849999999999997 0.005012 0.0052570000000000004 0.0047260000000000002 0.0049519999999999998 0.0044619999999999998 0.0046699999999999997 0.0042180000000000004 0.0044070000000000003 0.0039919999999999999 0.004163 0.0037820000000000002 0.0039360000000000003 0.003588 0.003725 0.003408 0.0035300000000000002 0.0032399999999999998 0.003349 0.0030860000000000002 0.0031809999999999998 0.0029420000000000002 0.0030249999999999999 0.0028080000000000002 0.0028809999999999999 0.0026840000000000002 0.002748 0.0025690000000000001 0.0026259999999999999 0.0024620000000000002 0.0025140000000000002 0.002362 0.0024109999999999999 0.0022690000000000002 0.0023180000000000002 0.002183 0.002232 0.002101 0.0021450000000000002 0.002016 0.0020370000000000002 0.0019090000000000001 0.0018810000000000001 0.0017570000000000001 0.001668 0.0015499999999999999 0.001402 0.0012979999999999999 0.0010889999999999999 0.001005 0.000745 0.00068599999999999998 0.00038900000000000002 0.000357 4.8000000000000001e-05 4.1e-05 -0.000261 -0.00024899999999999998 -0.00051599999999999997 -0.00049200000000000003 -0.00069700000000000003 -0.000669 -0.00080599999999999997 -0.00077800000000000005 -0.00084199999999999998 -0.00081899999999999996 -0.00084000000000000003 -0.00082200000000000003 -0.00082600000000000002 -0.00081599999999999999 -0.00080900000000000004 -0.00080500000000000005 -0.00078899999999999999 -0.00079000000000000001 -0.00076800000000000002 -0.00077300000000000003 -0.00074399999999999998 -0.000754 -0.00071900000000000002 -0.00073200000000000001 -0.00069300000000000004 -0.00070799999999999997 -0.00066399999999999999 -0.00068199999999999999 -0.00063299999999999999 -0.00065399999999999996 -0.00059999999999999995 -0.00062399999999999999 -0.00056400000000000005 -0.00059000000000000003 -0.00052400000000000005 -0.00055400000000000002 -0.00048299999999999998 -0.00051500000000000005 -0.000437 -0.00047199999999999998 -0.000388 -0.000426 -0.00033500000000000001 -0.00037599999999999998 -0.00027799999999999998 -0.000321 -0.00021599999999999999 -0.00026200000000000003 -0.00014899999999999999 -0.00019799999999999999 -7.7999999999999999e-05 -0.00012899999999999999 -9.9999999999999995e-07 -5.3999999999999998e-05 8.2999999999999998e-05 2.9e-05 0.000173 0.000118 0.00027 0.000214 0.00037199999999999999 0.00031599999999999998 0.00047899999999999999 0.00042299999999999998 0.00059000000000000003 0.00053499999999999999 0.00070200000000000004 0.00064899999999999995 0.00081599999999999999 0.00076400000000000003 0.00092699999999999998 0.00087799999999999998 0.0010319999999999999 0.00098700000000000003 0.0011310000000000001 0.001091 0.0012229999999999999 0.001189 0.001302 0.0012780000000000001 0.001371 0.001358 0.0014319999999999999 0.0014350000000000001 0.001487 0.001508 0.001534 0.0015759999999999999 0.001565 0.0016299999999999999 0.020018999999999999 0.018593999999999999 0.021403999999999999 0.019949999999999999 0.022877999999999999 0.021398 0.024444 0.022943000000000002 0.026109 0.024591999999999999 0.027882000000000001 0.026353000000000001 0.029772 0.028235 0.031784 0.030244 0.033912999999999999 0.032376000000000002 0.036153999999999999 0.034623000000000001 0.038503999999999997 0.036984999999999997 0.040964 0.039461999999999997 0.043534999999999997 0.042055000000000002 0.046216 0.044762000000000003 0.048930000000000001 0.047507000000000001 0.051563999999999999 0.050175999999999998 0.053978999999999999 0.052630999999999997 0.056264000000000002 0.054960000000000002 0.058484000000000001 0.057225999999999999 0.060594000000000002 0.059385 0.062645000000000006 0.061488000000000001 0.064687999999999996 0.063584000000000002 0.066657999999999995 0.065609000000000001 0.068544999999999995 0.067551 0.070334999999999995 0.069398000000000001 0.072038000000000005 0.071157999999999999 0.073663999999999993 0.072842000000000004 0.075194999999999998 0.074430999999999997 0.076654 0.075946 0.078019000000000005 0.077366000000000004 0.079287999999999997 0.078689999999999996 0.080472000000000002 0.079927999999999999 0.081557000000000004 0.081063999999999997 0.082565 0.082122000000000001 0.083502999999999994 0.083108000000000001 0.084377999999999995 0.084028000000000005 0.085196999999999995 0.084889999999999993 0.085930000000000006 0.085662000000000002 0.086578000000000002 0.086347999999999994 0.087148000000000003 0.086953000000000003 0.087636000000000006 0.087472999999999995 0.088045999999999999 0.087912000000000004 0.088362999999999997 0.088256000000000001 0.088572999999999999 0.088489999999999999 0.088689000000000004 0.088626999999999997 0.088716000000000003 0.088673000000000002 0.088653999999999997 0.088625999999999996 0.088500999999999996 0.088484999999999994 0.088253999999999999 0.088247999999999993 0.087919999999999998 0.087922 0.087523000000000004 0.087529999999999997 0.087068000000000006 0.087078000000000003 0.086539000000000005 0.086550000000000002 0.085905999999999996 0.085916000000000006 0.085151000000000004 0.085155999999999996 0.084296999999999997 0.084296999999999997 0.083415000000000003 0.083406999999999995 0.08251 0.082493999999999998 0.081584000000000004 0.081557000000000004 0.080614000000000005 0.080575999999999995 0.079521999999999995 0.079468999999999998 0.078266000000000002 0.078195000000000001 0.077011999999999997 0.076923000000000005 0.075773999999999994 0.075663999999999995 0.074554999999999996 0.074424000000000004 0.073344999999999994 0.073193999999999995 0.072137000000000007 0.071964 0.070924000000000001 0.070729 0.069536000000000001 0.069318000000000005 0.068053000000000002 0.067809999999999995 0.066603999999999997 0.066336000000000006 0.065182000000000004 0.064889000000000002 0.063777 0.063459000000000002 0.062384000000000002 0.062040999999999999 0.060990000000000003 0.060623999999999997 0.059583999999999998 0.059193000000000003 0.058125999999999997 0.057709000000000003 0.05663 0.056188000000000002 0.055111 0.054643999999999998 0.053533999999999998 0.053043 0.051874999999999998 0.051360000000000003 0.050155999999999999 0.049619000000000003 0.048369000000000002 0.047809999999999998 0.046557000000000001 0.045977999999999998 0.044788000000000001 0.044191000000000001 0.043062000000000003 0.042448 0.041376000000000003 0.040744000000000002 0.039725000000000003 0.039078000000000002 0.038106000000000001 0.037444999999999999 0.036489000000000001 0.035817000000000002 0.034851 0.034168999999999998 0.033223000000000003 0.032534 0.031635999999999997 0.030942000000000001 0.030095 0.029397 0.028604000000000001 0.027903000000000001 0.027161999999999999 0.026461999999999999 0.025767999999999999 0.025068 0.024414000000000002 0.023716000000000001 0.023091000000002096 0.022396000000176268 0.021789000006633377 0.021100000152360066 0.020464002085365356 0.019783022557974799 0.018954171157966476 0.018291002849438773 0.017391455318908969 0.016760974234106978 0.015930194208816806 0.015358386541702592 0.01460638971579873 0.014093882520372216 0.013377953898815628 0.012910369175330219 0.012259976326287539 0.011917336761830977 0.011412297843260371 0.011220045783479453 0.010772084939144303 0.010596848012031502 0.010069500611466223 0.0098117056434203036 0.0091776005428999517 0.0088525880474296867 0.0081730317659479204 0.0078486604204036931 0.00719123942716084 0.0069359907540373928 0.0063672839841088314 0.0062554232917168932 0.0058073963798033349 0.0058097226739133902 0.0053683809769467681 0.0053268117832745493 0.0047662316874381872 0.004637342725102498 0.0040190835215064401 0.0039187581443592872 0.0033378456885255038 0.0032856278958203621 0.0026388832029946613 0.0024371382430431244 0.0014641381558536239 0.0008637081116169271 -0.00051850554961153331 -0.0014947015374866598 -0.0032342504398318169 -0.0042313060279553782 -0.0057831495688329499 -0.0064647845819542343 -0.0074978391358109693 -0.0075697741206460743 -0.0082115778807333364 -0.0083504146472218599 -0.010420049802269939 -0.010449241454213463 -0.01048919242537703 -0.0081506236563600037 -0.0079502481152071997 -0.0076404476819091826 -0.0079917219467088001 -0.007822094328375169 -0.0080936221491868764 -0.0075539079812549804 -0.0073189294416831224 -0.0065208058694235958 -0.0068337844505655136 -0.0063152757091670571 -0.0068443180121891415 -0.0063163460760836789 -0.0065469631746391818 -0.0056023751461021587 -0.0057358281321859298 -0.0051580593593087091 -0.0059299215524066086 -0.0056314453495012263 -0.0061342773164332351 -0.0054977362333883248 -0.0061361983863915679 -0.0061381069684185319 -0.007778043292649587 -0.0092599016984207198 -0.012336326841680888 -0.014160819298949558 -0.016936423673822445 -0.018702162257830859 -0.021197445355413753 -0.022217884490852737 -0.023938669680283235 -0.024496995217218622 -0.025897021393665842 -0.026244810216663559 -0.027304379118026877 -0.027144900122212944 -0.027550333476474162 -0.026176816861536643 -0.025460331178640577 -0.02360315790237685 -0.023451544265556425 -0.022568962988929596 -0.022904865927117872 -0.022276378801037132 -0.022550167554324357 -0.021903007887835418 -0.02209903587091713 -0.021545882291416414 -0.021825320374669371 -0.02160665431293397 -0.022203067706315024 -0.022312427662557456 -0.022577383495090114 -0.022020707109628179 -0.021575534323552782 -0.02111073243700038 -0.021213244714055272 -0.021240639408375037 -0.02135757327293266 -0.020801002394264849 -0.021811122385712894 -0.020927919984366172 -0.021248612343322426 -0.019573188853069263 -0.020245646521942582 -0.020147945160430648 -0.02066056566415897 -0.019927820693014856 -0.020104792435901159 -0.01983748348588953 -0.020609791683111046 -0.020260029813737004 -0.020984182500793713 -0.020794901636664587 -0.021663677184461234 -0.021234209052270889 -0.021931950075141777 -0.02137019391645844 -0.022010480255889663 -0.021400821657943738 -0.022126066311228092 -0.021571798859694267 -0.022417815332940131 -0.021897193443525545 -0.022833270689331057 -0.022321501462682775 -0.023336201586674387 -0.022830313230581645 -0.023918040005699089 -0.023423250202572996 -0.024590301925895522 -0.024116025593241108 -0.025365236806774445 -0.024923518207418061 -0.026255273467727623 -0.025852652063956282 -0.02726020198567795 -0.026896605640154073 -0.028370372068665595 -0.028052454470853576 -0.029593812386647909 -0.02933155239190138 -0.030947267653016516 -0.030741544723275453 -0.032402911594424696 -0.032208261828669912 -0.033854176086075653 -0.033628289522426281 -0.035208109981883465 -0.034981952550168255 -0.036427858763903913 -0.036171101415499569 -0.03736550883571995 -0.036948662213088748 -0.037898778344785472 -0.037379897125087935 -0.03828725232588312 -0.037829378116591234 -0.038816800319012475 -0.038422277303414562 -0.039452460361564537 -0.039055218632818835 -0.040081398993184122 -0.039658512592734146 -0.040667610367715913 -0.040220280455914761 -0.041217273352719137 -0.040755877167405037 -0.041748630902205298 -0.041276652638749654 -0.042272806350658033 -0.041834566027015137 -0.042908266004269772 -0.042511152489577334 -0.043332270636100435 -0.042131483618589066 -0.041832015905335536 -0.040003573554827594 -0.040136462091257513 -0.039404702237202632 -0.040495727161201381 -0.040127656676562512 -0.041252872816204891 -0.040819096973298385 -0.041937091793254569 -0.041511630843430382 -0.042661907615844909 -0.042260662741685565 -0.043444293210777564 -0.04307498759837574 -0.044298805527153672 -0.043963693457923295 -0.04522349897056091 -0.044919091976254141 -0.046215505224409065 -0.045939320255874175 -0.047272065704270352 -0.047019817612134134 -0.048379792866677429 -0.048148384186909081 -0.049518803984083731 -0.049313038785660165 -0.050697280553207304 -0.050526855991602088 -0.051773834386582542 -0.051639209154134745 -0.052774195050058682 -0.052667544611687302 -0.053720879658381418 -0.053631737763568152 -0.054520845103957258 -0.054445549001279382 -0.055187324238859324 -0.055127609695156593 -0.055775774127729404 -0.055738664507342099 -0.056304908236623874 -0.056277309946876422 -0.056747610715545772 -0.056711706807826202 -0.057104125790104807 -0.057086486995972331 -0.057425064454581141 -0.057419371975037041 -0.057675049314550593 -0.057665004684683024 -0.057817000340256254 -0.057797000015108173 -0.057853000000445444 -0.057820000000005374 -0.057791000000000002 -0.057742000000000002 -0.057627999999999999 -0.057558999999999999 -0.057366 -0.057276000000000001 -0.056996999999999999 -0.056883000000000003 -0.056494000000000003 -0.056354000000000001 -0.055858999999999999 -0.055691999999999998 -0.055164999999999999 -0.054968999999999997 -0.054426000000000002 -0.054197000000000002 -0.053522 -0.053256999999999999 -0.05253 -0.052227999999999997 -0.051521999999999998 -0.051180000000000003 -0.050466999999999998 -0.050083000000000003 -0.049315999999999999 -0.048889000000000002 -0.048044999999999997 -0.047573999999999998 -0.046656999999999997 -0.046143000000000003 -0.045131999999999999 -0.044574000000000003 -0.043374999999999997 -0.042775000000000001 -0.041383000000000003 -0.040743000000000001 -0.039148000000000002 -0.038469999999999997 -0.036830000000000002 -0.036116000000000002 -0.034598999999999998 -0.033854000000000002 -0.032370999999999997 -0.031599000000000002 -0.029855 -0.029059999999999999 -0.027042 -0.026231000000000001 -0.023938999999999998 -0.023116000000000001 -0.020955999999999999 -0.020128 -0.018193999999999998 -0.01737 -0.015644000000000002 -0.014831 -0.013298000000000001 -0.012501999999999999 -0.011148 -0.010377000000000001 -0.0091940000000000008 -0.0084550000000000007 -0.0074380000000000002 -0.0067369999999999999 -0.0058770000000000003 -0.0052180000000000004 -0.0045069999999999997 -0.0038939999999999999 -0.0033249999999999998 -0.0027599999999999999 -0.002323 -0.0018090000000000001 -0.0014779999999999999 -0.0010150000000000001 -0.00076900000000000004 -0.000357 -0.00017799999999999999 0.000184 0.00031399999999999999 0.00062799999999999998 0.00071699999999999997 0.00098700000000000003 0.001039 0.001268 0.0012819999999999999 0.001474 0.0014480000000000001 0.001604 0.001534 0.001658 0.0015690000000000001 0.0016620000000000001 