# crys export
TITLE="FE Surface Data ASCII"
VARIABLES="X", "Y", "Z", "T", "Hw", "Hi", "HTC", "Beta", "TauX", "TauY", "TauZ", "Id"
ZONE T="WALL_2000"
NODES=720
ELEMENTS=720
DATAPACKING=BLOCK
ZONETYPE=FETRIANGLE
VARLOCATION=([4-12]=CELLCENTERED)
1.477176999999999962e+00 1.483621000000000079e+00 1.482294999999999918e+00 1.488523000000000041e+00 1.487057000000000073e+00 1.493063000000000029e+00 1.491487000000000007e+00 1.497268000000000043e+00 1.495608999999999966e+00 1.501162000000000107e+00 1.499444999999999917e+00 1.504769000000000023e+00 1.503014999999999990e+00 1.508108000000000004e+00 1.506337999999999955e+00 1.511200000000000099e+00 1.509430999999999967e+00 1.514062999999999937e+00 1.512310999999999961e+00 1.516712000000000060e+00 1.514990999999999977e+00 1.519163999999999959e+00 1.517485999999999891e+00 1.521433999999999953e+00 1.519808000000000048e+00 1.523533000000000026e+00 1.521968999999999905e+00 1.525474999999999914e+00 1.523979999999999890e+00 1.527271000000000045e+00 1.525849999999999929e+00 1.528931999999999958e+00 1.527590000000000003e+00 1.530467000000000022e+00 1.529207999999999901e+00 1.531886999999999999e+00 1.530710999999999933e+00 1.533198999999999979e+00 1.532108000000000025e+00 1.534410999999999969e+00 1.533406000000000047e+00 1.535531999999999897e+00 1.534612000000000087e+00 1.536567999999999934e+00 1.535730999999999957e+00 1.537525000000000031e+00 1.536769000000000052e+00 1.538408999999999915e+00 1.537733000000000017e+00 1.539225999999999983e+00 1.538626000000000049e+00 1.539979999999999905e+00 1.539452999999999960e+00 1.540677000000000074e+00 1.540219999999999922e+00 1.541320000000000023e+00 1.540929999999999911e+00 1.541914000000000007e+00 1.541587000000000041e+00 1.542462999999999917e+00 1.542194000000000065e+00 1.542967999999999895e+00 1.542756000000000016e+00 1.543433999999999973e+00 1.543274000000000035e+00 1.543862000000000068e+00 1.543746999999999980e+00 1.544249999999999901e+00 1.544167999999999985e+00 1.544591999999999965e+00 1.544524000000000008e+00 1.544874000000000080e+00 1.544797999999999893e+00 1.545082999999999984e+00 1.544991999999999921e+00 1.545223000000000013e+00 1.545099000000000000e+00 1.545288999999999913e+00 1.545114000000000098e+00 1.545277000000000012e+00 1.545034999999999936e+00 1.545185999999999948e+00 1.544867999999999908e+00 1.545018999999999920e+00 1.544629999999999947e+00 1.544788999999999968e+00 1.544329000000000063e+00 1.544500999999999902e+00 1.543962000000000057e+00 1.544148999999999994e+00 1.543544000000000027e+00 1.543746999999999980e+00 1.543085000000000706e+00 1.543305000000058769e+00 1.542583000001257476e+00 1.542823000017907953e+00 1.542037000136378122e+00 1.542297000750160851e+00 1.541441002010807804e+00 1.541723000405718969e+00 1.540791973989303232e+00 1.541098860167080309e+00 1.540084578512940894e+00 1.540418093425557355e+00 1.539314516898977248e+00 1.539677997010269417e+00 1.538476602772958168e+00 1.538873284252272766e+00 1.537564996266990613e+00 1.537997741349170777e+00 1.536574531962799472e+00 1.537046382035938574e+00 1.535497284918730942e+00 1.536012232567026459e+00 1.534326207997903202e+00 1.534888199892061156e+00 1.533055200530914597e+00 1.533667206568770203e+00 1.531672215483212085e+00 1.532340223450454841e+00 1.530171229761331464e+00 1.530898236615131358e+00 1.528540248283281722e+00 1.529331264424932613e+00 1.526769282272746331e+00 1.527629297350590942e+00 1.524845310223805983e+00 1.525779322003911753e+00 1.522757334262102580e+00 1.523770344174721014e+00 1.520489350399515827e+00 1.521587352832050266e+00 1.518028354767188892e+00 1.519215357884849515e+00 1.515355364335339461e+00 1.516638372068991547e+00 1.512455373522860080e+00 1.513839343209465449e+00 1.509307272600988181e+00 1.510797234193632876e+00 1.505890472874159336e+00 1.507493178646452492e+00 1.502183227751078487e+00 1.503903172567874202e+00 1.498159733522711701e+00 1.500001935183811197e+00 1.493790989502650657e+00 1.495761998656158775e+00 1.489048999889161840e+00 1.491153999992839818e+00 1.483900999999728132e+00 1.486146999999993223e+00 1.478315000000000046e+00 1.480704999999999938e+00 1.472250999999999976e+00 1.474792000000000103e+00 1.465667999999999971e+00 1.468366000000000060e+00 1.458523000000000014e+00 1.461383000000000099e+00 1.450766000000000000e+00 1.453794000000000031e+00 1.442345999999999906e+00 1.445546999999999915e+00 1.433203999999999922e+00 1.436585000000000001e+00 1.423278000000000043e+00 1.426844999999999919e+00 1.412501000000000007e+00 1.416258999999999935e+00 1.400797999999999988e+00 1.404754999999999976e+00 1.388090000000000046e+00 1.392252000000000045e+00 1.374289000000000094e+00 1.378662999999999972e+00 1.360932999999999948e+00 1.365512000000000059e+00 1.348627000000000020e+00 1.353396999999999961e+00 1.337296000000000040e+00 1.342241000000000017e+00 1.471672000000000091e+00 1.478331000000000062e+00 1.465753000000000084e+00 1.472622000000000098e+00 1.459387999999999908e+00 1.466460000000000097e+00 1.452542999999999918e+00 1.459810999999999970e+00 1.445181999999999967e+00 1.452638000000000096e+00 1.437264000000000097e+00 1.444900999999999991e+00 1.428747999999999907e+00 1.436555000000000026e+00 1.419586999999999932e+00 1.427554999999999907e+00 1.409732999999999903e+00 1.417850999999999972e+00 1.399130999999999903e+00 1.407388000000000083e+00 1.387726000000000015e+00 1.396109000000000044e+00 1.375453999999999954e+00 1.383950999999999931e+00 1.362247999999999903e+00 1.370846000000000009e+00 1.348033999999999955e+00 1.356718000000000091e+00 1.332732999999999945e+00 1.341490000000000071e+00 1.316260999999999903e+00 1.325075000000000003e+00 1.298526999999999987e+00 1.307382000000000044e+00 1.279433000000000042e+00 1.288313000000000041e+00 1.259438999999999975e+00 1.268326999999999982e+00 1.239811999999999914e+00 1.248690999999999995e+00 1.221168000000000031e+00 1.230021999999999949e+00 1.202577999999999925e+00 1.211392000000000024e+00 1.183850000000000069e+00 1.192606999999999973e+00 1.165154000000000023e+00 1.173837999999999937e+00 1.146095000000000086e+00 1.154689999999999994e+00 1.126557000000000031e+00 1.135048000000000057e+00 1.106519000000000030e+00 1.114889000000000019e+00 1.086432999999999982e+00 1.094670000000000032e+00 1.066713000000000022e+00 1.074805000000000010e+00 1.046836000000000100e+00 1.054769000000000068e+00 1.026710999999999929e+00 1.034472000000000058e+00 1.006601999999999997e+00 1.014180999999999999e+00 9.864399999999999835e-01 9.938249999999999584e-01 9.661779999999999813e-01 9.733600000000000030e-01 9.459210000000000118e-01 9.528900000000000148e-01 9.257950000000000346e-01 9.325440000000000396e-01 9.056419999999999471e-01 9.121620000000000283e-01 8.851459999999999884e-01 8.914279999999999982e-01 8.644589999999999774e-01 8.704950000000000188e-01 8.428400000000000336e-01 8.486179999999999835e-01 8.205139999999999656e-01 8.260250000000000092e-01 7.985560000000000436e-01 8.037969999999999837e-01 7.760240000000000471e-01 7.809880000000000155e-01 7.530470000000000219e-01 7.577289999999999859e-01 7.301450000000000440e-01 7.345429999999999460e-01 7.063230000000000341e-01 7.104300000000000059e-01 6.831800000000000095e-01 6.870000000000000551e-01 6.615490000000000537e-01 6.650939999999999630e-01 6.398709999999999676e-01 6.431400000000000450e-01 6.176829999999999821e-01 6.206730000000000302e-01 5.947010000000000352e-01 5.974089999999999678e-01 5.713160000000000460e-01 5.737430000000000030e-01 5.476159999999999917e-01 5.497619999999999729e-01 5.243700000000000028e-01 5.262419999999999876e-01 5.026549999999999629e-01 5.042689999999999673e-01 4.824760000000000160e-01 4.838470000000000271e-01 4.629389999999999894e-01 4.640750000000000153e-01 4.427519999999999789e-01 4.436559999999999948e-01 4.216699999999999893e-01 4.223399999999999932e-01 4.005799999999999916e-01 4.010239999999999916e-01 3.808810000000000251e-01 3.811140000000000083e-01 3.625680000000000014e-01 3.626059999999999839e-01 3.455630000000000090e-01 3.454209999999999781e-01 3.293209999999999749e-01 3.290100000000000247e-01 3.124040000000000150e-01 3.119279999999999831e-01 2.947529999999999872e-01 2.941170000000000173e-01 2.783590000000000231e-01 2.775759999999999894e-01 2.631160000000000165e-01 2.622019999999999906e-01 2.489580000000000126e-01 2.479250000000000065e-01 2.357940000000000036e-01 2.346550000000000025e-01 2.235669999999999880e-01 2.223350000000000048e-01 2.118619999999999948e-01 2.105460000000000109e-01 1.993270000000000042e-01 1.979329999999999978e-01 1.871200000000000085e-01 1.856569999999999887e-01 1.757730000000000126e-01 1.742509999999999892e-01 1.652359999999999940e-01 1.636660000000000059e-01 1.554439999999999988e-01 1.538349999999999995e-01 1.463530000000000109e-01 1.447150000000000103e-01 1.378389999999999893e-01 1.361799999999999955e-01 1.296980000000000077e-01 1.280260000000000009e-01 1.218329999999999969e-01 1.201549999999999979e-01 1.143060000000000048e-01 1.126290000000000069e-01 1.070539999999999964e-01 1.053859999999999936e-01 9.992299999999999793e-02 9.826899999999999524e-02 9.292000000000000259e-02 9.128500000000000503e-02 8.599500000000000199e-02 8.438700000000000367e-02 7.918699999999999350e-02 7.760999999999999843e-02 7.271099999999999786e-02 7.116999999999999715e-02 6.670600000000000140e-02 6.520499999999999907e-02 6.114599999999999896e-02 5.968799999999999800e-02 5.599500000000000310e-02 5.458199999999999857e-02 5.123199999999999976e-02 4.986499999999999960e-02 4.681600000000000344e-02 4.549899999999999778e-02 4.266299999999999953e-02 4.139799999999999730e-02 3.867899999999999811e-02 3.746700000000000030e-02 3.496099999999999902e-02 3.380400000000000071e-02 3.153199999999999753e-02 3.043099999999999972e-02 2.837200000000000139e-02 2.732700000000000060e-02 2.545899999999999899e-02 2.446900000000000117e-02 2.277799999999999964e-02 2.184300000000000130e-02 2.031000000000000166e-02 1.942999999999999935e-02 1.804800000000000154e-02 1.722200000000000120e-02 1.597900000000000015e-02 1.520700000000000003e-02 1.410199999999999995e-02 1.338100000000000053e-02 1.235600000000000066e-02 1.168699999999999947e-02 1.077900000000000039e-02 1.016000000000000063e-02 9.346999999999999406e-03 8.777999999999999345e-03 8.040000000000000271e-03 7.517000000000000244e-03 6.850999999996893429e-03 6.374999999734103778e-03 5.787999989411559895e-03 5.354999753140421599e-03 4.859996188633323479e-03 4.466958325737139558e-03 4.040699403776462813e-03 3.684277215830144246e-03 3.233107361770719106e-03 2.897256360374517517e-03 2.385760826632566441e-03 2.047708002366725386e-03 1.458646615810713478e-03 1.127772273886097371e-03 5.068584101050612432e-04 2.073365235362146196e-04 -3.360402646693290570e-04 -5.960270620786270197e-04 -1.081440250465237661e-03 -1.359089134060326165e-03 -1.859736908322496282e-03 -2.211375738125770807e-03 -2.713132690862585066e-03 -3.112398614381382302e-03 -3.543197609559359251e-03 -3.919035447636703279e-03 -4.228239204962123618e-03 -4.531974653659967545e-03 -4.718564758771456868e-03 -4.950450070434628085e-03 -5.043725811485526116e-03 -5.229296720707658080e-03 -5.268402811171629153e-03 -5.453858047418123911e-03 -5.489438122799173737e-03 -5.714125524406821373e-03 -5.739736088140973309e-03 -5.955929057267409996e-03 -5.883413115024513015e-03 -6.006055245324201652e-03 -5.820578597802520890e-03 -5.889706499196258743e-03 -5.696038125965207505e-03 -5.822959949814800543e-03 -5.702809229024241935e-03 -5.949575175335976122e-03 -5.903124039389228903e-03 -6.281125538473874247e-03 -6.297403600366594141e-03 -6.801372961801793564e-03 -6.891806053431421934e-03 -7.529382853261479963e-03 -7.607497420634435660e-03 -8.256855683459716350e-03 -8.234964297977395362e-03 -8.831814711866843581e-03 -8.719103660007660253e-03 -9.171072686693012080e-03 -8.646886040197322362e-03 -8.652225540608919976e-03 -7.616751830051811736e-03 -7.265817395836341071e-03 -6.323928347024522327e-03 -6.169450341917157715e-03 -5.411255093853266536e-03 -5.072560321874511682e-03 -4.376751630102742457e-03 -4.797705329995594417e-03 -4.735644652437653174e-03 -4.584303805748771166e-03 -4.071807223271431062e-03 -4.534259087733661167e-03 -5.237190362119056170e-03 -5.583293614761983964e-03 -5.213539260162847536e-03 -5.377290851290647197e-03 -4.997658718525323750e-03 -5.650367269998258883e-03 -5.600522645998048596e-03 -6.401521178078455922e-03 -5.826955026887518235e-03 -6.467986793349249364e-03 -5.814407152541329130e-03 -6.427516209763375378e-03 -5.592645935299130067e-03 -6.052746536056874578e-03 -4.563873520627577916e-03 -4.261192853277502926e-03 -2.279293417617432767e-03 -1.993252495203733099e-03 -8.370593150175639784e-05 1.538733043948461976e-04 2.053551669172982465e-03 2.233429901277156522e-03 4.030651714481241210e-03 4.038361428275527749e-03 5.676729616474051644e-03 5.555174227023602571e-03 7.103496678838098523e-03 6.893357872489424588e-03 8.291645246258446192e-03 7.886029235311269731e-03 9.043379173420424549e-03 8.492845683137975610e-03 9.633263605292473677e-03 9.061265120073457024e-03 1.018122741310046632e-02 9.518536881736875538e-03 1.039458794574078977e-02 9.607217682321162605e-03 1.041517813280438444e-02 9.661440624226089527e-03 1.058047244225460669e-02 9.696313383693639168e-03 1.028912963610457108e-02 8.538388743243684534e-03 9.187130142725152826e-03 8.442695586270402078e-03 1.019096235345049416e-02 9.558522327498807439e-03 1.064988712167252126e-02 9.707429330633132042e-03 1.074371122616487283e-02 9.722396157627754068e-03 1.080280988843500788e-02 9.757002248270505579e-03 1.097441747481226783e-02 9.962494070688290848e-03 1.132093501367553018e-02 1.028786001924209687e-02 1.181031713215132013e-02 1.077413248574602550e-02 1.244292067015120504e-02 1.142178615537549867e-02 1.324271177584248477e-02 1.218374656123082794e-02 1.413279317222327670e-02 1.302187214302305204e-02 1.510224734336424249e-02 1.393999859261593061e-02 1.616167302361135039e-02 1.494660072303318106e-02 1.732005490946045279e-02 1.605325933076187303e-02 1.859121238946701352e-02 1.727180479793867171e-02 1.998287801847477979e-02 1.860913555611190540e-02 2.150358919940330293e-02 2.007694613079832532e-02 2.316527958226116332e-02 2.168518898355373259e-02 2.497973823349194586e-02 2.344855124389425699e-02 2.695977881100441315e-02 2.537899725608027193e-02 2.912115583922264203e-02 2.749152071336533748e-02 3.147483163164262188e-02 2.979939359592735648e-02 3.403607491833294391e-02 3.231845568471191504e-02 3.681950900549275235e-02 3.506386738930447611e-02 3.984551292834336705e-02 3.805710861318289256e-02 4.313186777104788261e-02 4.131756399005092478e-02 4.670367517639493343e-02 4.487110790134490185e-02 5.058879573471852797e-02 4.874822148006276862e-02 5.482446616407651158e-02 5.299135413770468539e-02 5.946125427929772889e-02 5.765494496420486836e-02 6.451839095854047801e-02 6.275133924952751296e-02 6.917574696929683353e-02 6.745745357743307413e-02 7.348000255804031100e-02 7.182118130111345145e-02 7.763041819731467119e-02 7.602459027290106586e-02 8.215855046019125696e-02 8.060042493611593861e-02 8.706282020541880606e-02 8.556009039831173613e-02 9.237495024506664487e-02 9.094178441526602763e-02 9.814321233512116049e-02 9.679826336712570034e-02 1.044198599780935682e-01 1.031764673128533344e-01 1.112575426965299874e-01 1.101293206211354098e-01 1.187061855826669343e-01 1.177063101697501113e-01 1.268248505287148664e-01 1.259654309447971188e-01 1.356707012696688475e-01 1.349616741638590967e-01 1.453105820483579225e-01 1.447707054834078133e-01 1.558298439759406850e-01 1.554709000234939520e-01 1.672849529082693354e-01 1.670902652445755421e-01 1.797193920565469671e-01 1.797095078813118474e-01 1.932513202021206578e-01 1.934499760149963055e-01 2.079912324343544394e-01 2.084077366360724548e-01 2.240455101376112867e-01 2.246913524997681544e-01 2.415292929194175209e-01 2.424141139709722337e-01 2.605708568285036719e-01 2.617043421112678625e-01 2.813026292415587992e-01 2.826945113241531304e-01 3.037660051615518331e-01 3.054239109129913143e-01 3.256413263900166943e-01 3.275583109842721830e-01 3.467309488449269450e-01 3.488993286952226658e-01 3.662954766927287720e-01 3.687024551417267260e-01 3.851892230669012318e-01 3.878288094995776536e-01 4.045221765834364769e-01 4.073963156133669217e-01 4.248892785714497577e-01 4.280031875867390534e-01 4.460871357655916136e-01 4.494419958359200384e-01 4.679565953761998243e-01 4.715518829039325732e-01 4.902289762602240475e-01 4.940629966452789734e-01 5.113529996696014601e-01 5.154139999815999795e-01 5.311589999996200184e-01 5.354340000000263888e-01 5.505140000000018352e-01 5.549939999999999873e-01 5.698330000000000339e-01 5.745130000000000514e-01 5.889020000000000366e-01 5.937759999999999705e-01 6.083570000000000366e-01 6.134190000000000476e-01 6.295140000000000180e-01 6.347650000000000237e-01 6.525210000000000177e-01 6.579620000000000468e-01 6.754489999999999661e-01 6.810690000000000355e-01 6.965050000000000407e-01 7.022840000000000193e-01 7.193969999999999532e-01 7.253330000000000055e-01 7.421820000000000084e-01 7.482619999999999827e-01 7.631130000000000413e-01 7.693189999999999751e-01 7.827570000000000361e-01 7.890730000000000244e-01 8.026060000000000416e-01 8.090209999999999901e-01 8.226799999999999669e-01 8.291819999999999746e-01 8.429569999999999563e-01 8.495340000000000114e-01 8.644610000000000349e-01 8.711029999999999607e-01 8.878350000000000408e-01 8.945309999999999651e-01 9.132270000000000110e-01 9.199650000000000327e-01 9.408229999999999649e-01 9.475919999999999899e-01 9.664939999999999642e-01 9.732779999999999765e-01 9.900820000000000176e-01 9.968660000000000299e-01 1.014291999999999971e+00 1.021063000000000054e+00 1.040593000000000101e+00 1.047334999999999905e+00 1.069152000000000102e+00 1.075849000000000055e+00 1.098802999999999974e+00 1.105439999999999978e+00 1.126074999999999937e+00 1.132643000000000066e+00 1.151156999999999986e+00 1.157645999999999953e+00 1.174236999999999975e+00 1.180636000000000019e+00 1.195468999999999893e+00 1.201770999999999923e+00 1.215014000000000038e+00 1.221208999999999989e+00 1.233000000000000096e+00 1.239082999999999934e+00 1.249565999999999955e+00 1.255527000000000060e+00 1.264815999999999940e+00 1.270650000000000057e+00 1.278867999999999894e+00 1.284569000000000072e+00 1.291808999999999985e+00 1.297371000000000052e+00 1.303774999999999906e+00 1.309193000000000051e+00 1.315221999999999891e+00 1.320491000000000081e+00 1.326333999999999902e+00 1.331444999999999990e+00 