# crys export
TITLE="FE Surface Data ASCII"
VARIABLES="X", "Y", "Z", "T", "Hw", "Hi", "HTC", "Beta", "TauX", "TauY", "TauZ"
ZONE T="WALL_2000"
NODES=720
ELEMENTS=720
DATAPACKING=BLOCK
ZONETYPE=FETRIANGLE
VARLOCATION=([4-11]=CELLCENTERED)
1.477177 1.4836210000000001 1.4822949999999999 1.488523 1.4870570000000001 1.493063 1.491487 1.497268 1.495609 1.5011620000000001 1.4994449999999999 1.504769 1.503015 1.508108 1.506338 1.5112000000000001 1.509431 1.5140629999999999 1.512311 1.5167120000000001 1.514991 1.519164 1.5174859999999999 1.521434 1.519808 1.523533 1.5219689999999999 1.5254749999999999 1.5239799999999999 1.527271 1.5258499999999999 1.528932 1.52759 1.530467 1.5292079999999999 1.531887 1.5307109999999999 1.533199 1.532108 1.534411 1.533406 1.5355319999999999 1.5346120000000001 1.5365679999999999 1.535731 1.537525 1.5367690000000001 1.5384089999999999 1.537733 1.539226 1.538626 1.5399799999999999 1.539453 1.5406770000000001 1.5402199999999999 1.54132 1.5409299999999999 1.541914 1.541587 1.5424629999999999 1.5421940000000001 1.5429679999999999 1.542756 1.543434 1.543274 1.5438620000000001 1.543747 1.5442499999999999 1.5441680000000042 1.5445920000000195 1.5445240000000733 1.5448740000002994 1.5447980000010413 1.5450830000038018 1.5449920000121453 1.5452230000399154 1.5450990001175742 1.545289000350371 1.5451140009471105 1.5452770025487108 1.545035006309468 1.5451860154095596 1.5448680352303377 1.5450190786164169 1.5446301634127833 1.5447893303027329 1.5443296160134712 1.5445021185113248 1.5439638903012349 1.5441521163815313 1.543548816183888 1.5437542439374643 1.5430952561105933 1.5433190945419135 1.5426013144574688 1.5428460627851825 1.5420645690369505 1.5423289066838077 1.5414762218644684 1.541760670049934 1.5408306193460519 1.5411374026626476 1.5401217647608139 1.5404532151228612 1.5393468003950321 1.5397070038156677 1.5385019584215749 1.538895012173658 1.5375832327188597 1.5380128082515627 1.5365867181686372 1.5370560289542732 1.5355046746323495 1.5360176695228656 1.534329938835447 1.5348904816515605 1.533056234283253 1.533667188963185 1.5316712992610089 1.5323385603636872 1.5301689364669733 1.5308954230021097 1.5285369945832077 1.5293276470673616 1.5267653619650383 1.5276251350137584 1.5248409529168603 1.5257748123662092 1.5227527044426967 1.5237656268640314 1.5204845746700304 1.5215825471908699 1.518023542672964 1.5192105614382851 1.515350604318553 1.51663367179056 1.5124507665105493 1.5138348879691319 1.50930304008817 1.5107932201600756 1.5058864328666339 1.5074886723268879 1.5021779435874216 1.5038972372940336 1.4981535588686701 1.4999958965827729 1.4937852572383288 1.4957566287584358 1.4890440207065794 1.4911494219257933 1.4838968441290461 1.4861432748264127 1.4783117241730683 1.4807021736928432 1.4722486277648708 1.4747900608698248 1.4656664726591091 1.4683648372682734 1.4585221559786248 1.4613824126893715 1.4507656152764841 1.4537937612492879 1.4423458634251514 1.4455469279926583 1.4332039669621943 1.4365849877060632 1.4232779977079797 1.4268450015604024 1.4125010024213365 1.4162590021196977 1.4007980014746373 1.4047550009234551 1.3880900005158479 1.3922520002737735 1.3742890001342958 1.3786630000639744 1.3609330000288757 1.3655120000123435 1.3486270000050822 1.3533970000019451 1.3372960000005634 1.3422410000003342 1.4716720000000001 1.4783310000000001 1.4657530000000001 1.4726220000000001 1.4593879999999999 1.4664600000000001 1.4525429999999999 1.459811 1.445182 1.4526380000000001 1.4372640000000001 1.444901 1.4287479999999999 1.436555 1.4195869999999999 1.4275549999999999 1.4097329999999999 1.417851 1.3991309999999999 1.4073880000000001 1.387726 1.396109 1.375454 1.3839509999999999 1.3622479999999999 1.370846 1.348034 1.3567180000000001 1.3327329999999999 1.3414900000000001 1.3162609999999999 1.325075 1.298527 1.307382 1.279433 1.288313 1.259439 1.268327 1.2398119999999999 1.248691 1.221168 1.2300219999999999 1.2025779999999999 1.211392 1.1838500000000001 1.192607 1.165154 1.1738379999999999 1.1460950000000001 1.15469 1.126557 1.1350480000000001 1.106519 1.114889 1.086433 1.09467 1.066713 1.074805 1.0468360000000001 1.0547690000000001 1.0267109999999999 1.0344720000000001 1.006602 1.014181 0.98643999999999998 0.99382499999999996 0.96617799999999998 0.97336 0.94592100000000001 0.95289000000000001 0.92579500000000003 0.93254400000000004 0.90564199999999995 0.91216200000000003 0.88514599999999999 0.891428 0.86445899999999998 0.87049500000000002 0.84284000000000003 0.84861799999999998 0.82051399999999997 0.82602500000000001 0.79855600000000004 0.80379699999999998 0.77602400000000005 0.78098800000000002 0.75304700000000002 0.75772899999999999 0.73014500000000004 0.73454299999999995 0.70632300000000003 0.71043000000000001 0.68318000000000001 0.68700000000000006 0.66154900000000005 0.66509399999999996 0.63987099999999997 0.64314000000000004 0.61768299999999998 0.62067300000000003 0.59470100000000004 0.59740899999999997 0.57131600000000005 0.573743 0.54761599999999999 0.54976199999999997 0.52437 0.52624199999999999 0.50265499999999996 0.50426899999999997 0.48247600000000002 0.48384700000000003 0.46293899999999999 0.46407500000000002 0.44275199999999998 0.44365599999999999 0.42166999999999999 0.42233999999999999 0.40057999999999999 0.40102399999999999 0.38088100000000003 0.38111400000000001 0.362568 0.36260599999999998 0.34556300000000001 0.34542099999999998 0.32932099999999997 0.32901000000000002 0.31240400000000002 0.31192799999999998 0.29475299999999999 0.29411700000000002 0.27835900000000002 0.27757599999999999 0.26311600000000002 0.26220199999999999 0.24895800000000001 0.24792500000000001 0.235794 0.234655 0.22356699999999999 0.222335 0.21186199999999999 0.21054600000000001 0.199327 0.197933 0.18712000000000001 0.18565699999999999 0.17577300000000001 0.17425099999999999 0.16523599999999999 0.16366600000000001 0.155444 0.153835 0.14635300000000001 0.14471500000000001 0.13783899999999999 0.13618 0.12969800000000001 0.128026 0.121833 0.120155 0.114306 0.11262900000000001 0.107054 0.10538599999999999 0.099922999999999998 0.098268999999999995 0.092920000000000003 0.091285000000000005 0.085995000000000002 0.084387000000000004 0.079186999999999994 0.077609999999999998 0.072710999999999998 0.071169999999999997 0.066706000000000001 0.065204999999999999 0.061145999999999999 0.059687999999999998 0.055995000000000003 0.054581999999999999 0.051232 0.049865 0.046816000000000003 0.045498999999999998 0.042663 0.041397999999999997 0.038678999999999998 0.037467 0.034960999999999999 0.033804000000000001 0.031531999999999998 0.030430999999999982 0.028371999999999935 0.027326999999999681 0.025458999999998552 0.02446899999999393 0.022777999999975075 0.021842999999903093 0.020309999999631515 0.019429999998671801 0.018047999995333568 0.017221999984428686 0.01597899994942022 0.015206999843872837 0.014101999537885979 0.013380998688852104 0.012355996379964384 0.011686990461823261 0.010778975667463737 0.010159940812960238 0.0093468608987798251 0.0087776880768470188 0.0080393248642449053 0.007515603483935914 0.0068482159399950318 0.0063696924716755161 0.0057782480700214597 0.00533784063021874 0.0048310811026439438 0.0044202109987808904 0.0039694601955317247 0.0035805818990633058 0.0030916393165146788 0.0027156168276005789 0.0021681255695534659 0.0017990425938701877 0.0011822481229731379 0.00081770669897938736 0.00014716102236834289 -0.00023034524750714858 -0.00088923052038172574 -0.0013030335694573987 -0.0019719041193132026 -0.0024458369553081033 -0.0031421551236511672 -0.003681580794590837 -0.004365247833732596 -0.0049467430078155598 -0.0055669445623626442 -0.006143117819380442 -0.0066621212653551962 -0.007178880710802537 -0.0075731001873722611 -0.0079984883659804124 -0.0082638108517242743 -0.0085920492329470723 -0.0087343124083828372 -0.0089702469503100818 -0.0089910059709151988 -0.0091326170226329016 -0.0090183569074423001 -0.0090644416605861738 -0.0088207936448028903 -0.0087909789229874639 -0.0084778030492285075 -0.0084400620413058076 -0.0081624300345510391 -0.0082425644540912463 -0.0081459935136446154 -0.0085196267208315028 -0.0087294014369275509 -0.0095014899684408016 -0.010050667701951338 -0.011211780878332293 -0.012068043848611017 -0.013560102733158923 -0.014572145805874046 -0.01620053149534606 -0.017162177412377255 -0.018683221210268049 -0.019337165418782463 -0.020381686072322065 -0.020226827549510489 -0.020359047620380939 -0.019308841176652471 -0.018725414296645228 -0.017306010428346407 -0.016523005444243552 -0.015116809152293628 -0.014468103921524899 -0.013291393931760039 -0.012924831644056146 -0.012042228720334263 -0.012007199725339387 -0.011376040768332698 -0.011643314567909482 -0.011191034694413146 -0.011665061350699842 -0.011319896541362491 -0.011919604851884339 -0.011545670052423946 -0.012184357119930111 -0.011685626350036974 -0.012258540289189761 -0.011529424966776641 -0.011918484516984866 -0.010845025539056238 -0.010924253228672945 -0.0093673347099841927 -0.0090455147200693403 -0.0069860438156117578 -0.0062835107950621376 -0.0038206614163550272 -0.0029212695298745589 -0.0003548666855895617 0.00046694073318844247 0.0028567435366769422 0.0034586910998579967 0.005635342075853594 0.0059856959369723184 0.0079130840728767419 0.0080073000557384384 0.0096835828685649054 0.0095304508102643255 0.010950808057651669 0.010559051868572662 0.011718272530506689 0.011109495080301951 0.012107216391931771 0.011305486896816142 0.012122250917934251 0.011157803217348003 0.011785219071507733 0.010728044481694897 0.011249508868680629 0.010208260690414877 0.010745226923503539 0.0097578740456432961 0.01037345279767056 0.0094693314582027874 0.01027572174910886 0.0094654815277190104 0.010463539565708889 0.0096504547998504525 0.010704652416677429 0.0098120049715830666 0.010882612048292451 0.0098951805427414732 0.011000043197463776 0.0099350729759893203 0.011099980270462264 0.0099821443246003849 0.011245448444284864 0.010103984769356915 0.011499999243693101 0.010356923363316119 0.011907997022176006 0.010767220429923553 0.012481976898686471 0.011336623231219754 0.013216573030680001 0.012054214974711234 0.014096854295071425 0.01290887350691718 0.015114243469295538 0.013890319492458275 0.01626090650886939 0.014995549369570737 0.017538628110632695 0.016226809502678404 0.018947777359911759 0.017585176055169301 0.020491895576244659 0.019077635082864353 0.022178497090763825 0.020710312435061773 0.024016365644143774 0.022495629193213348 0.026016470633548072 0.024443996257067765 0.028193534701615616 0.026570263760404642 0.030559359391725865 0.028889049626977858 0.033130334771811452 0.031416410655895177 0.035920181231481232 0.034165708220307386 0.03894701744859539 0.03715600853471511 0.042226221000093885 0.04040460087472808 0.045781591927126067 0.043937492648070106 0.049642982452609737 0.047789027857340544 0.053852475400185153 0.052005931846851358 0.058462841645886984 0.056642461943171935 0.063491593909194677 0.061708265976138557 0.068115709042713288 0.066380113106184468 0.072384006029319298 0.070706861030749774 0.076501612124501156 0.074889996421056801 0.081029349551572483 0.079488199214372751 0.08597745246207579 0.084509027016401186 0.091362843330242249 0.089970808825717299 0.097213753490883681 0.095909273825084657 0.10356973699905291 0.10236323795968137 0.11047972027991092 0.10938580574180938 0.11799706951475547 0.11703262552078818 0.12618926576942921 0.1253717504961139 0.13512411569075747 0.13446658465774794 0.14486861358669298 0.14437740807711125 0.15547819950840722 0.1551573279328233 0.16701225327710031 0.16686226086247857 0.17953523704832619 0.17956233682438652 0.19313286547402825 0.19335243471089464 0.20790887877854192 0.20833624152249286 0.22398202210790952 0.22463395028544086 0.24147688253101629 0.24236605651793433 0.26052681954953805 0.26166407630383859 0.28126593327422089 0.28266117367029181 0.30373590099146558 0.30539693637936599 0.32561740733528655 0.32753734682590091 0.34671270765241313 0.34888357949130117 0.36628193174308504 0.3686909072279545 0.38517941825283541 0.38782056376067164 0.40451530659121288 0.40739069200777406 0.42488474496384815 0.42799948464740345 0.44608395733793194 0.44943918504466501 0.4679542034554745 0.47155003013348801 0.4902276968284609 0.49406220608653156 0.51135258527514971 0.51541385186606492 0.53115902210826649 0.5354341198209257 0.55051416155869015 0.5549941660655946 0.56983314881546876 0.57451312080689754 0.58890209071362776 0.59377606355846169 0.60835704168856131 0.61341902587946784 0.62951401515026029 0.63476500854686324 0.65252100459308471 0.65796200239790625 0.67544900120736417 0.68106900057984765 0.6965050002671449 0.7022840001132532 0.7193970000455181 0.72533300001802992 0.7421820000069177 0.7482620000025485 0.76311300000092486 0.76931900000031095 0.7827570000001024 0.78907300000003111 0.80260600000000926 0.80902100000000221 0.82268000000000108 0.82918199999999997 0.84295699999999996 0.84953400000000001 0.86446100000000003 0.87110299999999996 0.88783500000000004 0.89453099999999997 0.91322700000000001 0.91996500000000003 0.94082299999999996 0.94759199999999999 0.96649399999999996 0.97327799999999998 0.99008200000000002 0.99686600000000003 1.014292 1.0210630000000001 1.0405930000000001 1.0473349999999999 1.0691520000000001 1.0758490000000001 1.098803 1.10544 1.1260749999999999 1.1326430000000001 1.151157 1.157646 1.174237 1.180636 1.1954689999999999 1.2017709999999999 1.215014 1.221209 1.2330000000000001 1.2390829999999999 1.249566 1.2555270000000001 1.2648159999999999 1.2706500000000001 1.2788679999999999 1.2845690000000001 1.291809 1.2973710000000001 1.3037749999999999 1.3091930000000003 1.3152220000000023 1.3204910000000076 1.326334000000025 1.331445000000081 
0.014112 0.012952 0.01316 0.012034 0.01227 0.011181 0.011439 0.010388 0.010664 0.0096530000000000001 0.0099439999999999997 0.0089739999999999993 0.0092770000000000005 0.0083490000000000005 0.0086599999999999993 0.0077739999999999997 0.00809 0.007247 0.0075630000000000003 0.0067629999999999999 0.0070790000000000002 0.0063220000000000004 0.006633 0.0059189999999999998 0.006221 0.0055500000000000002 0.0058389999999999996 0.0052100000000000002 0.0054879999999999998 0.0048989999999999997 0.0051630000000000001 0.004614 0.0048640000000000003 0.0043530000000000001 0.0045849999999999997 0.0041110000000000001 0.004326 0.0038869999999999998 0.0040850000000000001 0.0036800000000000001 0.0038609999999999998 0.0034889999999999999 0.003653 0.0033110000000000001 0.00346 0.0031470000000000001 0.0032829999999999999 0.0029949999999999998 0.0031180000000000001 0.0028549999999999999 0.0029659999999999999 0.0027239999999999999 0.0028249999999999998 0.0026029999999999998 0.0026949999999999999 0.00249 0.0025760000000000002 0.002385 0.002467 0.0022880000000000001 0.0023679999999999999 0.0021970000000000002 0.0022780000000000001 0.0021120000000000036 0.0021890000000000086 0.0020240000000000466 0.0020810000000001877 0.0019160000000008272 0.0019330000000030371 0.0017690000000119622 0.001727000000039833 0.0015690000001378041 0.0014680000003984611 0.0013210000011639887 0.0011580000027972971 0.001032000006215474 0.00081400000941407493 0.00071400000177340619 0.00045699993244940743 0.00038699962268205762 0.00010899856439923545 6.5995246326402249e-05 -0.00020901385323437259 -0.00022903767258778616 -0.0004690927643111588 -0.00047321810765332904 -0.0006604659860866925 -0.00065596355324347162 -0.00078084555275910049 -0.000773435540572563 -0.00083898757536530371 -0.00083413589335048295 -0.00086415395790882105 -0.00086498878903265629 -0.00088461309812785385 -0.00089603138603355998 -0.00091642743658276553 -0.00093751249945215015 -0.00095546995537847492 -0.00098356962631027068 -0.00099228867550423786 -0.0010226483331237516 -0.0010192797793470356 -0.0010464103843597957 -0.0010315716810420474 -0.0010523724266819072 -0.0010264067317890917 -0.0010415534322362684 -0.0010060799187783195 -0.0010188293685369379 -0.00097521602752766569 -0.00098784242006932986 -0.00093796903098114677 -0.00095192792958505746 -0.00089779633296556947 -0.00091272432984508599 -0.00085368696391824707 -0.00086974766999149992 -0.00080584297930518282 -0.00082400328651424865 -0.00075616129599790608 -0.00077534542386297357 -0.00070050180728597089 -0.00072067299210668749 -0.00064082199671151505 -0.00066300556538037526 -0.00057719472715749454 -0.00059944263885126361 -0.00050771124226947726 -0.00053102999208185528 -0.00043333563648722352 -0.00045662699199534407 -0.00035180933178246258 -0.00037486157442489896 -0.0002636579710424559 -0.00028417786745924613 -0.0001662674214835665 -0.00018593539194250374 -6.0001940174653174e-05 -7.7536410537656019e-05 5.5664837554913771e-05 4.0442028897648817e-05 0.0001800173647298917 0.00016812932449016227 0.00031202597576609798 0.00030336847386861008 0.00044946882022476415 0.00044297898315634899 0.00059033851182187529 0.0005862425753686446 0.00073027356339790659 0.0007301029087614663 0.00086933828419303455 0.00087441503853840665 0.0010037678911659611 0.0010154279869931924 0.0011305688418026903 0.0011489393410886691 0.0012436088009309858 0.001268446245293688 0.0013396689690011146 0.0013726233626122014 0.0014197602073470336 0.0014639340712551618 0.0014826869231563285 0.0015421560483971158 0.0015267860017034673 0.0016047594701786305 0.0015433447697113022 0.0016416624046532388 0.001519836560458922 0.0016409225601820095 0.0014419656242366037 0.0015869849899307206 0.0012829938200510575 0.0014529974533337073 0.00104299898824286 0.0012379996117161617 0.00072299985481851143 0.00094499994858913256 0.00032799998641234974 0.00057699999195334718 0.015129999999999999 0.013937 0.016215 0.014992 0.01737 0.016119999999999999 0.018600999999999999 0.017326000000000001 0.019911000000000002 0.018616000000000001 0.021308000000000001 0.019994000000000001 0.022793999999999998 0.021467 0.024376999999999999 0.023039 0.026061999999999998 0.024718 0.027857 0.026511 0.029772 0.028427999999999998 0.031808999999999997 0.030471000000000002 0.033966999999999997 0.032638 0.036240000000000001 0.034923999999999997 0.038623999999999999 0.037324999999999997 0.041123 0.039844999999999998 0.043734000000000002 0.042479999999999997 0.046455999999999997 0.045228999999999998 0.049210999999999998 0.048015000000000002 0.051825000000000003 0.050663 0.054216 0.053090999999999999 0.056505 0.055419999999999997 0.058720000000000001 0.057675999999999998 0.060837000000000002 0.059837000000000001 0.062903000000000001 0.061948000000000003 0.064926999999999999 0.064019000000000006 0.066910999999999998 0.066049999999999998 0.068807999999999994 0.067996000000000001 0.070579000000000003 0.069815000000000002 0.072272000000000003 0.071555999999999995 0.073895000000000002 0.073225999999999999 0.075426000000000007 0.074803999999999995 0.076869000000000007 0.076293 0.078228000000000006 0.077698000000000003 0.079495999999999997 0.079009999999999997 0.080665000000000001 0.080223000000000003 0.081744999999999998 0.081344 0.082752000000000006 0.082391000000000006 0.083678000000000002 0.083354999999999999 0.084552000000000002 0.084265000000000007 0.085365999999999997 0.085112999999999994 0.086076 0.085856000000000002 0.086711999999999997 0.086523000000000003 0.087272000000000002 0.087110999999999994 0.087739999999999999 0.087604000000000001 0.088133000000000003 0.088021000000000002 0.088430999999999996 0.088340000000000002 0.088619000000000003 0.088547000000000001 0.088718000000000005 0.088662000000000005 0.088727 0.088686000000000001 0.088646000000000003 0.088616 0.088473999999999997 0.088453000000000004 0.088207999999999995 0.088193999999999995 0.087859999999999994 0.087852 0.087447999999999998 0.087443000000000007 0.086978 0.086975999999999998 0.086432999999999996 0.086430999999999994 0.085777000000000006 0.085774000000000003 0.085000999999999993 0.084994 0.084136000000000002 0.084125000000000005 0.083242999999999998 0.083224999999999993 0.082325999999999996 0.082300999999999999 0.081388000000000002 0.081354999999999997 0.080403000000000002 0.080361000000000002 0.079283000000000006 0.079229999999999995 0.078024999999999997 0.077959000000000001 0.076777999999999999 0.076698000000000002 0.075544 0.075450000000000003 0.074327000000000004 0.074218000000000006 0.073118000000000002 0.072994000000000003 0.071911000000000003 0.071771000000000001 0.070664000000000005 0.070508000000000001 0.069233000000000003 0.069059999999999996 0.067756999999999998 0.067567000000000002 0.066309000000000007 0.066100999999999993 0.064887 0.064660999999999996 0.063480999999999996 0.063237000000000002 0.062088999999999998 0.061828000000000001 0.060698000000000002 0.060420000000000001 0.059278999999999998 0.058985000000000003 0.057819000000000002 0.057507999999999997 0.056333000000000001 0.056006 0.054812 0.054468999999999997 0.053225000000000001 0.052866999999999997 0.051575999999999997 0.051202999999999999 0.049854000000000002 0.049466000000000003 0.048069000000000001 0.047669000000000003 0.046282999999999998 0.045870000000000001 0.044539000000000002 0.044114 0.042835999999999999 0.0424 0.041170999999999999 0.040724999999999997 0.039541 0.039086000000000003 0.037940000000000002 0.037476000000000002 0.036340999999999998 0.035869999999999999 0.034712 0.034236000000000003 0.033099999999999997 0.032620000000000003 0.031528 0.031044000000000023 0.030002000000000133 0.029514000000000574 0.028521000000002475 0.028032000000010059 0.027090000000040065 0.026600000000151083 0.025704000000557156 0.02521300000194757 0.024357000006635366 0.023867000021469551 0.023041000067620908 0.022552000202387939 0.021746000580955691 0.021259001597813281 0.020433004274648239 0.019949010917625284 0.019148027004031801 0.018668063708612539 0.017909145282045135 0.017433316253020716 0.016726664821667868 0.016256336363057587 0.015596590644358846 0.015134805610983404 0.014504597341748389 0.014053739062436206 0.013442222852533672 0.013008215285090717 0.012379020991481166 0.011968853298962932 0.011200082082432901 0.010822278556705546 0.0099174168163468478 0.0095738657124544799 0.0085256385829680353 0.008218580487268699 0.007004979405473742 0.0067437065695148454 0.0055302758268451664 0.0053247644167900452 0.0041989098826666366 0.0040555806549324716 0.0030126690687672895 0.0029247676730652216 0.0019360121973409253 0.0018860789995406723 0.00092169381294899514 0.00088551434549504306 -7.1466668534728129e-05 -0.00011267599281037153 -0.001072215748472096 -0.0011235589449545432 -0.0020845086342743172 -0.0021405112219210643 -0.0030974452887386904 -0.0031524404104363271 -0.0041039748558203745 -0.0041585849782265769 -0.0051104805705077206 -0.0051648269864251004 -0.006118496110475052 -0.0061698499793292182 -0.0071147739484535254 -0.0071476185902207253 -0.0080608452778254663 -0.0080499327089925948 -0.0089079076274184137 -0.0088286797334086904 -0.009631411860629796 -0.0095084304207897208 -0.010307101964300878 -0.010212118581826312 -0.011089157867500131 -0.011108596648498821 -0.012116303125755359 -0.012297699702984324 -0.013486042823125195 -0.013776122500888532 -0.014937977233146927 -0.015123511799388251 -0.01613437370115416 -0.016172527097123721 -0.017147162235379015 -0.017110579256370381 -0.017993882796520051 -0.01781985822669447 -0.018642770825491605 -0.018357396118577531 -0.019154843735899589 -0.018839085877645923 -0.019695387101486345 -0.019438417146805137 -0.020435775680745793 -0.020304505483321272 -0.021493077724524176 -0.021498980284758513 -0.022761700223864215 -0.022908902581782988 -0.024244542507701361 -0.024538848161001294 -0.025976271948512986 -0.026407498399953201 -0.02792385078960704 -0.028442861992355729 -0.029959352003486522 -0.030470534804929908 -0.031909752236758779 -0.032317593616142448 -0.033612113927636654 -0.033820113567484641 -0.034921836323578648 -0.034833581595627945 -0.035607689037255398 -0.035209109341389662 -0.035612246301901386 -0.034999198881630542 -0.035126679847184011 -0.034407048536024283 -0.034366424048024084 -0.033617346991857588 -0.03347335840857063 -0.032728167852107602 -0.032502195499868033 -0.031764112325080328 -0.031421546366537087 -0.030691503798493881 -0.030239423953506615 -0.029548834629572314 -0.029021245652755139 -0.028350455567583196 -0.027775250259410356 -0.027122044021254 -0.026525655284645015 -0.025957356841552849 -0.025447825982516117 -0.024956191098000475 -0.024494279745094934 -0.02410549201708307 -0.023983313571597217 -0.023932093535533088 -0.024192088589726712 -0.024244679606554517 -0.024654649552255874 -0.024718462584438123 -0.025211532659334575 -0.025249044863247874 -0.025786120849752923 -0.025788477443515659 -0.026353055140636596 -0.026291764746273441 -0.026846445985134356 -0.026683096248074047 -0.027190525162037675 -0.026899391016911738 -0.027349138052191222 -0.026945638019032266 -0.027365808597357533 -0.026891581949887788 -0.027331292062713026 -0.026825026758222931 -0.027317634757360508 -0.026805963577680541 -0.027366693949110434 -0.026859868182265358 -0.027491104195464369 -0.026991669928278148 -0.027684988731816483 -0.027192229818660898 -0.02793798091252031 -0.027447602886899368 -0.028240885506828066 -0.027752935723580754 -0.028586418088161869 -0.028101391947645195 -0.028968265967466735 -0.028488236882276398 -0.029384438098559919 -0.028913401562533136 -0.029834181754247395 -0.029380761989497971 -0.030329331900097251 -0.02990132666173995 -0.030888943295704546 -0.030499197277582185 -0.031536834689682935 -0.031198819573303404 -0.03230755658008775 -0.032037975229601216 -0.033235600148168343 -0.033047674678049928 -0.034352325160604706 -0.034248858759975527 -0.035663602221503291 -0.035636449356430289 -0.037144740725625236 -0.037166184589585656 -0.038730281531625547 -0.038759888141903065 -0.040332534499418565 -0.040350761898205641 -0.041741292858729247 -0.04170890172861607 -0.042867540272435334 -0.042743284675347958 -0.043662387448740771 -0.043443422277911516 -0.044240843132571067 -0.043969318032476751 -0.044728600859098799 -0.044450183479610501 -0.045229497824406918 -0.044975676830300772 -0.045799872113303199 -0.045585407086969378 -0.046461707960407966 -0.046282546115563233 -0.047200781875142123 -0.047034578721182295 -0.047958431121257167 -0.047746166545798219 -0.048599095468299401 -0.048250275357433578 -0.048935902989104198 -0.048371656458771693 -0.048837903611403097 -0.048059857081693073 -0.048365342315205104 -0.047488217821534319 -0.047788431218669741 -0.046984175857465831 -0.047439608227044405 -0.046829845254651434 -0.047519659083452202 -0.047122948117158239 -0.048022350429716351 -0.047778099413664232 -0.048811400274975859 -0.048646220472221426 -0.049741986354090467 -0.049609063430543408 -0.05073099654207678 -0.050616782260948928 -0.051755600359552276 -0.051663608607245982 -0.052810760803850255 -0.052744391433840764 -0.053756776927347441 -0.053709823212228801 -0.054586926586233334 -0.054555831442654912 -0.055267145529652513 -0.055245485855131504 -0.055835134311930198 -0.055820286298520316 -0.056336914700348524 -0.056329001926281375 -0.056791112807490891 -0.056786060794671786 -0.057184873881778307 -0.057179214170638482 -0.057505403004435476 -0.057494038953918816 -0.057744747063472365 -0.057722782285000072 -0.057880145330582548 -0.057844305729514642 -0.057911922505349198 -0.057858788373287569 -0.057849402465033194 -0.057777500228742812 -0.057693008538713612 -0.057599494498891436 -0.057444622947364202 -0.057325991728847787 -0.057089298565333131 -0.056942264379296705 -0.056595661887301182 -0.056418336515557124 -0.055959163740897322 -0.055752078256090597 -0.055234036297811616 -0.054995016222956605 -0.054466007020911728 -0.054194002796071547 -0.053517001056757323 -0.0532100003955914 -0.052478000143815887 -0.05213700005050443 -0.051429000017546925 -0.051052000005666176 -0.05034200000179824 -0.049928000000529389 -0.049137000000149922 -0.048688000000040844 -0.047814000000010709 -0.047331000000002697 -0.046373000000000657 -0.045855000000000139 -0.044732000000000008 -0.044184000000000001 -0.042840000000000003 -0.042264000000000003 -0.040689000000000003 -0.040089 -0.038259000000000001 -0.037636999999999997 -0.035908000000000002 -0.035269000000000002 -0.033647000000000003 -0.032995999999999998 -0.031213000000000001 -0.030554999999999999 -0.028462000000000001 -0.027802 -0.025394 -0.024736000000000001 -0.022166999999999999 -0.021517000000000001 -0.019185000000000001 -0.018547999999999999 -0.016441999999999998 -0.015824000000000001 -0.013925999999999999 -0.013331000000000001 -0.01163 -0.011062000000000001 -0.0095499999999999995 -0.0090119999999999992 -0.0076880000000000004 -0.007182 -0.0060410000000000004 -0.005568 -0.0046049999999999997 -0.0041660000000000004 -0.0033730000000000062 -0.0029680000000000314 -0.0023360000000001435 -0.0019640000000006219 -0.001477000000002614 -0.0011370000000104647 -0.00075600000004028879 -0.00044800000014896547 -0.00015900000052545602 0.00011999999820835194 