# crys export
TITLE="FE Surface Data ASCII"
VARIABLES="X", "Y", "Z", "T", "Hw", "Hi", "HTC", "Beta", "TauX", "TauY", "TauZ"
ZONE T="WALL_2000"
NODES=720
ELEMENTS=720
DATAPACKING=BLOCK
ZONETYPE=FETRIANGLE
VARLOCATION=([4-11]=CELLCENTERED)
1.477177 1.4836210000000001 1.4822949999999999 1.488523 1.4870570000000001 1.493063 1.491487 1.497268 1.495609 1.5011620000000001 1.4994449999999999 1.504769 1.503015 1.508108 1.506338 1.5112000000000001 1.509431 1.5140629999999999 1.512311 1.5167120000000001 1.514991 1.519164 1.5174859999999999 1.521434 1.519808 1.523533 1.5219689999999999 1.5254749999999999 1.5239799999999999 1.527271 1.5258499999999999 1.528932 1.52759 1.530467 1.5292079999999999 1.531887 1.5307109999999999 1.533199 1.532108 1.534411 1.533406 1.5355319999999999 1.5346120000000001 1.5365679999999999 1.535731 1.537525 1.5367690000000001 1.5384089999999999 1.537733 1.539226 1.538626 1.5399799999999999 1.539453 1.5406770000000001 1.5402199999999999 1.54132 1.5409299999999999 1.541914 1.541587 1.5424629999999999 1.5421940000000001 1.5429679999999999 1.542756 1.543434 1.543274 1.5438620000000001 1.543747 1.5442499999999999 1.544168 1.544592 1.544524 1.5448740000000025 1.5447980000000072 1.5450830000000306 1.5449920000001138 1.5452230000004363 1.5450990000014773 1.5452890000051196 1.5451140000159318 1.5452770000498004 1.545035000142051 1.5451860004026752 1.5448680010625304 1.5450190027478061 1.5446300065720822 1.5447890153629495 1.54432903278789 1.5445010686293461 1.543962132438371 1.5441492507142394 1.5435444407792811 1.5437477569639866 1.5430862119874396 1.5433068878863296 1.5425857542102683 1.5428268945425498 1.5420421765515713 1.5423036492108002 1.5414490639143172 1.5417324375473545 1.5408024721391371 1.5411102014667049 1.540096401441635 1.5404301900279995 1.5393264933589352 1.5396894894463766 1.5384872157921148 1.5388828495912139 1.5375734467605302 1.5380051269899524 1.5365809098733669 1.5370518456641433 1.5355019180920739 1.5360161378013997 1.5343294743302061 1.5348909249823912 1.5330574620186486 1.5336690798995802 1.5316737591516472 1.5323414966169266 1.5301722782338993 1.5308991016241662 1.5285409570702473 1.5293318422901385 1.5267697499411346 1.5276296772316516 1.5248456181966938 1.5257795699373045 1.5227575281962207 1.5237704906202445 1.5204894562095606 1.5215874250366643 1.5180284018793828 1.5192153912606023 1.5153554048400564 1.516638450894255 1.5124555448005703 1.5138396915716765 1.5093079027924574 1.5107981689999859 1.5058914916018773 1.5074938422341151 1.5021832142419047 1.5039025702562332 1.4981589056835014 1.5000011910851545 1.4937904314583628 1.4957616141385468 1.4890487521974864 1.4911538461780063 1.4839009100534619 1.4861469490736192 1.4783149729633231 1.4807049860729606 1.4722509933047194 1.4747919968706904 1.4656679986426877 1.4683659994268721 1.4585229997770253 1.4613829999156471 1.4507659999709173 1.4537939999903189 1.4423459999971264 1.4455469999992006 1.4332039999998152 1.4365849999999669 1.4232779999999989 1.4268450000000026 1.4125010000000016 1.4162590000000002 1.400798 1.404755 1.38809 1.392252 1.3742890000000001 1.378663 1.3609329999999999 1.3655120000000001 1.348627 1.353397 1.337296 1.342241 1.4716720000000001 1.4783310000000001 1.4657530000000001 1.4726220000000001 1.4593879999999999 1.4664600000000001 1.4525429999999999 1.459811 1.445182 1.4526380000000001 1.4372640000000001 1.444901 1.4287479999999999 1.436555 1.4195869999999999 1.4275549999999999 1.4097329999999999 1.417851 1.3991309999999999 1.4073880000000001 1.387726 1.396109 1.375454 1.3839509999999999 1.3622479999999999 1.370846 1.348034 1.3567180000000001 1.3327329999999999 1.3414900000000001 1.3162609999999999 1.325075 1.298527 1.307382 1.279433 1.288313 1.259439 1.268327 1.2398119999999999 1.248691 1.221168 1.2300219999999999 1.2025779999999999 1.211392 1.1838500000000001 1.192607 1.165154 1.1738379999999999 1.1460950000000001 1.15469 1.126557 1.1350480000000001 1.106519 1.114889 1.086433 1.09467 1.066713 1.074805 1.0468360000000001 1.0547690000000001 1.0267109999999999 1.0344720000000001 1.006602 1.014181 0.98643999999999998 0.99382499999999996 0.96617799999999998 0.97336 0.94592100000000001 0.95289000000000001 0.92579500000000003 0.93254400000000004 0.90564199999999995 0.91216200000000003 0.88514599999999999 0.891428 0.86445899999999998 0.87049500000000002 0.84284000000000003 0.84861799999999998 0.82051399999999997 0.82602500000000001 0.79855600000000004 0.80379699999999998 0.77602400000000005 0.78098800000000002 0.75304700000000002 0.75772899999999999 0.73014500000000004 0.73454299999999995 0.70632300000000003 0.71043000000000001 0.68318000000000001 0.68700000000000006 0.66154900000000005 0.66509399999999996 0.63987099999999997 0.64314000000000004 0.61768299999999998 0.62067300000000003 0.59470100000000004 0.59740899999999997 0.57131600000000005 0.573743 0.54761599999999999 0.54976199999999997 0.52437 0.52624199999999999 0.50265499999999996 0.50426899999999997 0.48247600000000002 0.48384700000000003 0.46293899999999999 0.46407500000000002 0.44275199999999998 0.44365599999999999 0.42166999999999999 0.42233999999999999 0.40057999999999999 0.40102399999999999 0.38088100000000003 0.38111400000000001 0.362568 0.36260599999999998 0.34556300000000001 0.34542099999999998 0.32932099999999997 0.32901000000000002 0.31240400000000002 0.31192799999999998 0.29475299999999999 0.29411700000000002 0.27835900000000002 0.27757599999999999 0.26311600000000002 0.26220199999999999 0.24895800000000001 0.24792500000000001 0.235794 0.234655 0.22356699999999999 0.222335 0.21186199999999999 0.21054600000000001 0.199327 0.197933 0.18712000000000001 0.18565699999999999 0.17577300000000001 0.17425099999999999 0.16523599999999999 0.16366600000000001 0.155444 0.153835 0.14635300000000001 0.14471500000000001 0.13783899999999999 0.13618 0.12969800000000001 0.128026 0.121833 0.120155 0.114306 0.11262900000000001 0.107054 0.10538599999999999 0.099922999999999998 0.098268999999999995 0.092920000000000003 0.091285000000000005 0.085995000000000002 0.084387000000000004 0.079186999999999994 0.077609999999999998 0.072710999999999998 0.071169999999999997 0.066706000000000001 0.065204999999999999 0.061145999999999999 0.059687999999999998 0.055995000000000003 0.054581999999999999 0.051232 0.049865 0.046816000000000003 0.045498999999999998 0.042663 0.041397999999999997 0.038678999999999998 0.037467 0.034960999999999999 0.033804000000000001 0.031531999999999998 0.030431 0.028371999999999974 0.027326999999999865 0.025458999999999413 0.024468999999997514 0.022777999999989803 0.021842999999960349 0.020309999999849219 0.019429999999456327 0.018047999998089224 0.017221999993621482 0.015978999979271664 0.015206999935984738 0.014101999810417857 0.013380999461760862 0.012355998512879865 0.011686996078644298 0.010778989987829474 0.010159975623665532 0.0093469426534709618 0.0087778712669924104 0.0080397210450206258 0.0075164222747478165 0.0068498467631318526 0.0063727984528992388 0.0057839491603313359 0.0053478615910999274 0.0048479518447227549 0.0044474764360498643 0.0040111041589488052 0.0036418731024558735 0.0031777906153715083 0.0028335560800930755 0.0023238189084426736 0.0020002123613807317 0.0014349292992346199 0.0011301923052557559 0.00052842041913199803 0.00023197925909704088 -0.00033055529472765299 -0.00063028663200826471 -0.0011639954001007847 -0.0014812537253363887 -0.0019974104834195494 -0.0023361560578920209 -0.0027997010768992222 -0.003149003685314785 -0.003529319148076237 -0.003867779732938656 -0.0041570682902291002 -0.0044608644623147344 -0.0046631729596075403 -0.0049224658174137331 -0.0050487632428710743 -0.0052663049765236556 -0.0053260823391155267 -0.0055083450653020428 -0.0055049301683849187 -0.0056530189586885791 -0.0055768162888717712 -0.0056922593791759197 -0.0055471066040314746 -0.0056399287068264886 -0.0054659652400393033 -0.0055735096335408386 -0.0054334662693113697 -0.0056247148635517729 -0.0055880797105591551 -0.0059486329154318437 -0.0060587115253297264 -0.0066442556112958932 -0.0069214139641775021 -0.0077308774182432401 -0.0081563202318955877 -0.0091501238394974833 -0.0096089070065127884 -0.010656202066281687 -0.011032157126271216 -0.011987827690853341 -0.012109939413324985 -0.012707896165896054 -0.012259572261364923 -0.012317926678163092 -0.011402515205054342 -0.011101559203380773 -0.010037724779419341 -0.0096358074864219857 -0.0085997409658003874 -0.008289170429139606 -0.0074059695326167147 -0.0072830407812772089 -0.0065944982449914896 -0.006704657265155632 -0.006174089045675628 -0.0065022539841174537 -0.0060838602782376117 -0.0065698843728935457 -0.0062222870777342868 -0.0068106667069194353 -0.0064198269036060095 -0.007045765831663056 -0.0065439285750797105 -0.0071355064533807338 -0.0064561230656664274 -0.0069405084903538484 -0.0060179917157792322 -0.0063229964335172984 -0.0050755138726810319 -0.0051564724393052212 -0.0035911749065316492 -0.0034663092879328615 -0.0016484700499973894 -0.0014163381478937284 0.00048415313139396762 0.00068182221140789185 0.0025018965571447886 0.0025865260387416726 0.0043030028622116729 0.0042483741465255105 0.0058258833307113364 0.0056206866104606427 0.0070476164653095474 0.0066923216148721491 0.0079600898075382655 0.0074630092406441691 0.0085695055903162315 0.0079577114191157986 0.009006476543996382 0.0083088317594445828 0.0092812938139533278 0.008517466851858467 0.0093789097235922863 0.0085745352133801411 0.0093534821430508695 0.0085400480918656606 0.0092899263653990118 0.008490113334392561 0.009282618905949171 0.0085024103601029129 0.0093897562026636142 0.0086214951671132276 0.0096429188137717378 0.0088736911937948703 0.010002123644391351 0.0092108878259966331 0.010417844698443299 0.0095844253878275658 0.010863044105999595 0.0099792312395644879 0.011329497814556345 0.010393021932068787 0.011826776497407245 0.010839721590166714 0.012369472393989715 0.011336840819161609 0.012977321358596035 0.011903295607987998 0.013666963497525216 0.012553702687418046 0.014452435292621951 0.01329793085961084 0.015339633881679868 0.014144622888411678 0.016337589207189227 0.015098107531296286 0.01745000204602306 0.016164517930293599 0.018685740514829158 0.017351704261750069 0.020049733665377038 0.018664652622727616 0.021548971456864501 0.020113414908035053 0.023193681900279962 0.021706437834477454 0.024994513063477011 0.023457552894356443 0.026963472849856202 0.025377900984247213 0.029115776309928534 0.027482712519173471 0.031463621449471527 0.029787112908465044 0.034024067367067166 0.032308076474123724 0.036812021422764664 0.035060453208451824 0.03984734543451713 0.038065198446102094 0.043147226337394803 0.041340963975922886 0.046736006092845901 0.04491303172406784 0.050641131539790919 0.048811248248473167 0.054897926283582768 0.05307335822527439 0.059548312620270952 0.057741823950974977 0.06459908235902459 0.062821534077995136 0.069231174798328146 0.067492834498658227 0.073489371744590054 0.071798681862111718 0.077575531428972125 0.075939157855686876 0.082049129872663051 0.080475467785074653 0.086930392882067831 0.085427099173886703 0.092246282536850757 0.090820561236426914 0.098031008699880268 0.096695544607573028 0.10432643683172162 0.10309178041811305 0.11118097227468501 0.1100602078887699 0.1186439921241362 0.11765056124135444 0.12677541783769403 0.12592260892628701 0.13563540204244826 0.13493437288491206 0.14528937002820388 0.14474944596658021 0.15580115898960276 0.15543339096921052 0.16724480073041931 0.16705660905839026 0.17969690460140947 0.17969749059316759 0.19324686078152481 0.19345023798637703 0.20799423136955092 0.20841214444666123 0.22405043597497801 0.22469626490671557 0.24153386559054732 0.24241822521779119 0.26057442157942196 0.26170734721282246 0.28130502454268869 0.28269632914498494 0.30376731682555863 0.30542488659855221 0.32564211734700521 0.32755903388993862 0.34673162855116146 0.34889995317752553 0.36629600818838942 0.36870287489765241 0.38518952384423594 0.38782901085964677 0.40452232271786415 0.4073964789202148 0.42488948497199014 0.42800334001430923 0.44608705535257415 0.44944163257547159 0.46795608366575009 0.47155141872592038 0.49022865724315678 0.49406281475838087 0.51135291288859508 0.51541396925538163 0.53115899740403127 0.53543400908364935 0.55051401165630898 0.55499401017936745 0.56983300751859467 0.57451300495188384 0.58890200299798801 0.59377600167953382 0.6083570008779281 0.61341900043242636 0.62951400019933001 0.63476500008885561 0.65252100003741342 0.65796200001540339 0.67544900000611863 0.68106900000231985 0.69650500000085469 0.70228400000028679 0.71939700000009044 0.72533300000002843 0.74218200000000867 0.74826200000000254 0.76311300000000115 0.76931899999999998 0.78275700000000004 0.78907300000000002 0.80260600000000004 0.80902099999999999 0.82267999999999997 0.82918199999999997 0.84295699999999996 0.84953400000000001 0.86446100000000003 0.87110299999999996 0.88783500000000004 0.89453099999999997 0.91322700000000001 0.91996500000000003 0.94082299999999996 0.94759199999999999 0.96649399999999996 0.97327799999999998 0.99008200000000002 0.99686600000000003 1.014292 1.0210630000000001 1.0405930000000001 1.0473349999999999 1.0691520000000001 1.0758490000000001 1.098803 1.10544 1.1260749999999999 1.1326430000000001 1.151157 1.157646 1.174237 1.180636 1.1954689999999999 1.2017709999999999 1.215014 1.221209 1.2330000000000001 1.2390829999999999 1.249566 1.2555270000000001 1.2648159999999999 1.2706500000000001 1.2788679999999999 1.2845690000000001 1.291809 1.2973710000000001 1.3037749999999999 1.3091930000000001 1.3152219999999999 1.3204910000000001 1.3263339999999999 1.331445 
0.014112 0.012952 0.01316 0.012034 0.01227 0.011181 0.011439 0.010388 0.010664 0.0096530000000000001 0.0099439999999999997 0.0089739999999999993 0.0092770000000000005 0.0083490000000000005 0.0086599999999999993 0.0077739999999999997 0.00809 0.007247 0.0075630000000000003 0.0067629999999999999 0.0070790000000000002 0.0063220000000000004 0.006633 0.0059189999999999998 0.006221 0.0055500000000000002 0.0058389999999999996 0.0052100000000000002 0.0054879999999999998 0.0048989999999999997 0.0051630000000000001 0.004614 0.0048640000000000003 0.0043530000000000001 0.0045849999999999997 0.0041110000000000001 0.004326 0.0038869999999999998 0.0040850000000000001 0.0036800000000000001 0.0038609999999999998 0.0034889999999999999 0.003653 0.0033110000000000001 0.00346 0.0031470000000000001 0.0032829999999999999 0.0029949999999999998 0.0031180000000000001 0.0028549999999999999 0.0029659999999999999 0.0027239999999999999 0.0028249999999999998 0.0026029999999999998 0.0026949999999999999 0.00249 0.0025760000000000002 0.002385 0.002467 0.0022880000000000001 0.0023679999999999999 0.0021970000000000002 0.0022780000000000001 0.0021120000000000002 0.002189 0.0020240000000000002 0.002081 0.0019160000000000028 0.0019330000000000122 0.001769000000000055 0.0017270000000002093 0.0015690000000008429 0.0014680000000027919 0.0013210000000094865 0.0011580000000261362 0.0010320000000673543 0.0008140000001162507 0.00071400000001795982 0.00045699999883561592 0.00038699999252710874 0.00010899996734973606 6.5999874699241589e-05 -0.00020900042112897838 -0.00022900132677875835 -0.0004690037589232971 -0.00047301022223486815 -0.00066002499861818906 -0.00065505961357023969 -0.00077913045628561905 -0.00077027907983740472 -0.00083355391458031546 -0.00082507208774583419 -0.00084993561899800011 -0.0008434010188162562 -0.00085360878443308625 -0.00085297625968705569 -0.00085955415457749566 -0.00086483396045183055 -0.00086654654666004063 -0.00087806987690952924 -0.00087160857791430252 -0.00088827583623801644 -0.00087386696499062739 -0.00089233114137952918 -0.00087148260109582516 -0.00088834053418520317 -0.00086019209365442923 -0.00087430904443264157 -0.00083855571093743668 -0.00085139878750031535 -0.00080804425749049361 -0.00082096260757512872 -0.00077138174396496355 -0.00078562339737981736 -0.00073179197399569115 -0.00074703944486659605 -0.00068836088469380232 -0.00070480082235667083 -0.00064130879740416835 -0.00065988717734937472 -0.00059248430232230315 -0.00061210204695054653 -0.00053770835334131359 -0.00055832522079438292 -0.00047894741977229285 -0.00050162333056914799 -0.00041637437869266095 -0.00043926459686956807 -0.00034831134167122757 -0.00037256851216978395 -0.00027599011668981801 -0.00030056634715448782 -0.00019709981149248953 -0.00022145039460754476 -0.00011122312470843381 -0.00013215702680399602 -1.3734076470588133e-05 -3.1771206140316186e-05 9.7162370397221523e-05 8.3827468595297123e-05 0.00022236514797476227 0.00021293769321628332 0.00035842051198215548 0.00035162766742162884 0.00049944646959466205 0.00049285532389854465 0.00063899751599793653 0.00063034533653139979 0.00077329517354950551 0.00076276808786109171 0.00089821679293618272 0.00088776770911143344 0.0010147594478814562 0.0010063278405413874 0.0011206581657881329 0.0011168298912570122 0.0012159208208779441 0.0012189637893534134 0.0012989845622941891 0.0013109935067551896 0.0013709974621160985 0.001394999017119167 0.0014349996473775261 0.0014739998741236653 0.0014889999584978065 0.0015459999863272384 0.0015289999958517941 0.0016059999987373585 0.001543999999647025 0.001641999999900632 0.0015199999999743726 0.0016409999999933199 0.0014419999999984092 0.0015869999999996156 0.0012829999999999151 0.0014529999999999808 0.001042999999999996 0.0012379999999999995 0.00072300000000000001 0.00094499999999999998 0.000328 0.00057700000000000004 0.015129999999999999 0.013937 0.016215 0.014992 0.01737 0.016119999999999999 0.018600999999999999 0.017326000000000001 0.019911000000000002 0.018616000000000001 0.021308000000000001 0.019994000000000001 0.022793999999999998 0.021467 0.024376999999999999 0.023039 0.026061999999999998 0.024718 0.027857 0.026511 0.029772 0.028427999999999998 0.031808999999999997 0.030471000000000002 0.033966999999999997 0.032638 0.036240000000000001 0.034923999999999997 0.038623999999999999 0.037324999999999997 0.041123 0.039844999999999998 0.043734000000000002 0.042479999999999997 0.046455999999999997 0.045228999999999998 0.049210999999999998 0.048015000000000002 0.051825000000000003 0.050663 0.054216 0.053090999999999999 0.056505 0.055419999999999997 0.058720000000000001 0.057675999999999998 0.060837000000000002 0.059837000000000001 0.062903000000000001 0.061948000000000003 0.064926999999999999 0.064019000000000006 0.066910999999999998 0.066049999999999998 0.068807999999999994 0.067996000000000001 0.070579000000000003 0.069815000000000002 0.072272000000000003 0.071555999999999995 0.073895000000000002 0.073225999999999999 0.075426000000000007 0.074803999999999995 0.076869000000000007 0.076293 0.078228000000000006 0.077698000000000003 0.079495999999999997 0.079009999999999997 0.080665000000000001 0.080223000000000003 0.081744999999999998 0.081344 0.082752000000000006 0.082391000000000006 0.083678000000000002 0.083354999999999999 0.084552000000000002 0.084265000000000007 0.085365999999999997 0.085112999999999994 0.086076 0.085856000000000002 0.086711999999999997 0.086523000000000003 0.087272000000000002 0.087110999999999994 0.087739999999999999 0.087604000000000001 0.088133000000000003 0.088021000000000002 0.088430999999999996 0.088340000000000002 0.088619000000000003 0.088547000000000001 0.088718000000000005 0.088662000000000005 0.088727 0.088686000000000001 0.088646000000000003 0.088616 0.088473999999999997 0.088453000000000004 0.088207999999999995 0.088193999999999995 0.087859999999999994 0.087852 0.087447999999999998 0.087443000000000007 0.086978 0.086975999999999998 0.086432999999999996 0.086430999999999994 0.085777000000000006 0.085774000000000003 0.085000999999999993 0.084994 0.084136000000000002 0.084125000000000005 0.083242999999999998 0.083224999999999993 0.082325999999999996 0.082300999999999999 0.081388000000000002 0.081354999999999997 0.080403000000000002 0.080361000000000002 0.079283000000000006 0.079229999999999995 0.078024999999999997 0.077959000000000001 0.076777999999999999 0.076698000000000002 0.075544 0.075450000000000003 0.074327000000000004 0.074218000000000006 0.073118000000000002 0.072994000000000003 0.071911000000000003 0.071771000000000001 0.070664000000000005 0.070508000000000001 0.069233000000000003 0.069059999999999996 0.067756999999999998 0.067567000000000002 0.066309000000000007 0.066100999999999993 0.064887 0.064660999999999996 0.063480999999999996 0.063237000000000002 0.062088999999999998 0.061828000000000001 0.060698000000000002 0.060420000000000001 0.059278999999999998 0.058985000000000003 0.057819000000000002 0.057507999999999997 0.056333000000000001 0.056006 0.054812 0.054468999999999997 0.053225000000000001 0.052866999999999997 0.051575999999999997 0.051202999999999999 0.049854000000000002 0.049466000000000003 0.048069000000000001 0.047669000000000003 0.046282999999999998 0.045870000000000001 0.044539000000000002 0.044114 0.042835999999999999 0.0424 0.041170999999999999 0.040724999999999997 0.039541 0.039086000000000003 0.037940000000000002 0.037476000000000002 0.036340999999999998 0.035869999999999999 0.034712 0.034236000000000003 0.033099999999999997 0.032620000000000003 0.031528 0.031044000000000009 0.030002000000000053 0.029514000000000234 0.028521000000001014 0.028032000000004116 0.027090000000016354 0.026600000000061675 0.025704000000227389 0.025213000000794673 0.024357000002706655 0.023867000008754788 0.023041000027563263 0.022552000082457398 0.021746000236563295 0.021259000650193972 0.020433001738100302 0.019949004435128644 0.019148010958370834 0.018668025821765695 0.017909058802115841 0.017433127798889305 0.016726268176249878 0.016255537986518142 0.015595040622635914 0.015131925671498566 0.014499435957155559 0.014044873802131749 0.013427623901995308 0.012985133635592876 0.012344503669370647 0.011919181711196934 0.01113188500386468 0.010731195927810466 0.0098002768822744706 0.0094266294107596595 0.0083460383922340526 0.0080031926988707591 0.006750719579649813 0.0064451561587714618 0.0051809695369415985 0.0049169780248471849 0.0037237837575426636 0.0035049877233595123 0.0023785291451070595 0.0022018497725194348 0.0011208468208213514 0.00097995083330383787 -7.1480381457279785e-05 -0.00018596344313332694 -0.0012106664571270792 -0.001306038710382381 -0.002306128161155642 -0.0023839759276401101 -0.0033587854980903272 -0.0034169476740502536 -0.0043657457814023646 -0.0044029170725524772 -0.0053274197606615155 -0.0053455898765899408 -0.0062517097414292212 -0.0062510146098394516 -0.0071412375228044282 -0.0071224404741620671 -0.0079928998906865431 -0.0079501280692037633 -0.0087901710348842598 -0.0087129435254664888 -0.0095161352590018861 -0.0093964483281036553 -0.010170924286213532 -0.01002515872696281 -0.010797989944156998 -0.010662916437344993 -0.011475235606507881 -0.011394896419220502 -0.012262013912966488 -0.012254048328838071 -0.013207559186926104 -0.01323333268127312 -0.014129103895712987 -0.014084273560852305 -0.014918532874082352 -0.014802284984922197 -0.015610665193870747 -0.01541332965928241 -0.016157066038968819 -0.015867951329185215 -0.016606250275652358 -0.01626263047441423 -0.017023172706681581 -0.016680613228546803 -0.017514996013535171 -0.017227686144616571 -0.01817882663332877 -0.017979467757759656 -0.019071794437299422 -0.018962026817349265 -0.020083894113134545 -0.020064146995576234 -0.021204816059914949 -0.021271715466659711 -0.022450622943364244 -0.022591866718827572 -0.023792972369847409 -0.023976920514590983 -0.025153349943255122 -0.025324389933232803 -0.026438963230555401 -0.026545799601966385 -0.027577818840328529 -0.027573530080495134 -0.028526271105966797 -0.028366704855461587 -0.029144367060415562 -0.028817265517045675 -0.029342353348571656 -0.028885731077798134 -0.029188571470069067 -0.028650727255661656 -0.028787808895369846 -0.028205834305462148 -0.028214238752719698 -0.027605787264103916 -0.027503128711074267 -0.026879020577189393 -0.026646474637542345 -0.026023227023706699 -0.025680855502296575 -0.02510326519030762 -0.024702607837774133 -0.024176167771794321 -0.023763585895145056 -0.023286011637148694 -0.022874046643834512 -0.02244976851170824 -0.022072869676848746 -0.021705837642790229 -0.021406667943943473 -0.02109615652550232 -0.020924706539830768 -0.020671838886167575 -0.02070065907024142 -0.020505852420731586 -0.020698018484768439 -0.020543918426502942 -0.020848250975325503 -0.020708459723525755 -0.021088174721328391 -0.020938396729116224 -0.021371391562628492 -0.021192358064883111 -0.021660790540271653 -0.021441291516156369 -0.021935578188016856 -0.021668027022637919 -0.022182645766012043 -0.021869587308986454 -0.022406386969961466 -0.022053910922316258 -0.022623962835436252 -0.022238978232163448 -0.022849943973341637 -0.022441540910714063 -0.023097515239498205 -0.022670741682947002 -0.023373610631586616 -0.022933452600272838 -0.023679440505096943 -0.02323066117193729 -0.024016197899339731 -0.023560087515196459 -0.024385400901651234 -0.023926169888126469 -0.024787480394661426 -0.024328351000238679 -0.025220945823923709 -0.024765311214351635 -0.025685777838702673 -0.02523748807833838 -0.02618007966320372 -0.025745842146011166 -0.02671084548666363 -0.026294534373669718 -0.027288376928751665 -0.02689704163211433 -0.027924224618431286 -0.027563986811341333 -0.02863788939956672 -0.028317407992517661 -0.029448339288379914 -0.029174319471776997 -0.030375729376947887 -0.030148827372119109 -0.031424942429327953 -0.031242275665235589 -0.032585955665820461 -0.032433720694832698 -0.033824374361215659 -0.033682297036159173 -0.035085928560095424 -0.034941180434724974 -0.03617598482313155 -0.036005520039145346 -0.037045032101022383 -0.036826082599920339 -0.037674700741877683 -0.037407434635906935 -0.038174244533117956 -0.03788328945321244 -0.038628685584938989 -0.038336615836750444 -0.039098064483982148 -0.038818951641320966 -0.039607987030976198 -0.039347031518857732 -0.040165093664084245 -0.039916531933848372 -0.040757817010393868 -0.040512862721580091 -0.04136735022058724 -0.041109168932982235 -0.041959054006735677 -0.04166918851861192 -0.042496211282760862 -0.042166727028076723 -0.042968593524245473 -0.042614012569643388 -0.043416932522570909 -0.043074025680195874 -0.043919734857367193 -0.043630310642806265 -0.044552378697069135 -0.044335998267792887 -0.04534781592527222 -0.045199482961634549 -0.046289852478272178 -0.046189460893752428 -0.047337257975651713 -0.047267196993051548 -0.048449932769812659 -0.048399764133715245 -0.049604526840447721 -0.049572044963259815 -0.050792106227667791 -0.050777814504218644 -0.051998990410568185 -0.05200263496271413 -0.053081315739497113 -0.0530974928698347 -0.054033050833936593 -0.054057576824645015 -0.054820588974258969 -0.054847955921428798 -0.055482400190516291 -0.055508404840579034 -0.056061219161303383 -0.056084812449081436 -0.056574092198885879 -0.056592240013492841 -0.057011198488727516 -0.057023285197281101 -0.057365643299487519 -0.057369468056888966 -0.057634807675122669 -0.05762740051077489 -0.057799102616355659 -0.057777490256181979 -0.057858458583435815 -0.057817605886420299 -0.057818741767689627 -0.057755557527993606 -0.05767785296419653 -0.057589447116540286 -0.057438225394270584 -0.057322107909144569 -0.057087049286937259 -0.0569410214321752 -0.056595008808727525 -0.056418003530722079 -0.05595900134351587 -0.055752000505638041 -0.055234000184818249 -0.054995000065153524 -0.054466000022531408 -0.054194000007096808 -0.053517000002105637 -0.053210000000623488 -0.052478000000179506 -0.052137000000049907 -0.051429000000013866 -0.05105200000000356 -0.0503420000000009 -0.049928000000000229 -0.04913700000000007 -0.048688000000000002 -0.047814000000000002 -0.047330999999999998 -0.046372999999999998 -0.045855 -0.044732000000000001 -0.044184000000000001 -0.042840000000000003 -0.042264000000000003 -0.040689000000000003 -0.040089 -0.038259000000000001 -0.037636999999999997 -0.035908000000000002 -0.035269000000000002 -0.033647000000000003 -0.032995999999999998 -0.031213000000000001 -0.030554999999999999 -0.028462000000000001 -0.027802 -0.025394 -0.024736000000000001 -0.022166999999999999 -0.021517000000000001 -0.019185000000000001 -0.018547999999999999 -0.016441999999999998 -0.015824000000000001 -0.013925999999999999 -0.013331000000000001 -0.01163 -0.011062000000000001 -0.0095499999999999995 -0.0090119999999999992 -0.0076880000000000004 -0.007182 -0.0060410000000000004 -0.005568 -0.0046049999999999997 -0.0041660000000000004 -0.0033730000000000001 -0.0029680000000000002 -0.002336 -0.001964 -0.001477 -0.001137 -0.00075600000000000005 -0.00044799999999999999 -0.00015899999999999999 0.00012 