# crys export
TITLE="FE Surface Data ASCII"
VARIABLES="X", "Y", "Z", "T", "Hw", "Hi", "HTC", "Beta", "TauX", "TauY", "TauZ"
ZONE T="WALL_2000"
NODES=720
ELEMENTS=720
DATAPACKING=BLOCK
ZONETYPE=FETRIANGLE
VARLOCATION=([4-11]=CELLCENTERED)
1.335812 1.3415379999999999 1.3527659999999999 1.3583000000000001 1.3683639999999999 1.3737060000000001 1.3827179999999999 1.387867 1.395929 1.400887 1.408091 1.4128579999999999 1.419287 1.4238649999999999 1.4295960000000001 1.433986 1.4390860000000001 1.44329 1.4478249999999999 1.4518439999999999 1.4558709999999999 1.459708 1.4632810000000001 1.4669380000000001 1.4701040000000001 1.473584 1.4763869999999999 1.4796940000000001 1.482175 1.485311 1.4875050000000001 1.4904740000000001 1.492416 1.4952220000000001 1.496939 1.4995860000000001 1.5011080000000001 1.5035989999999999 1.504948 1.5072890000000001 1.5084869999999999 1.510683 1.511749 1.513803 1.5147539999999999 1.5166729999999999 1.5175240000000001 1.5193129999999999 1.520076 1.5217400000000001 1.5224260000000001 1.523971 1.5245919999999999 1.5260229999999999 1.526586 1.527909 1.5284219999999999 1.5296430000000001 1.5301119999999999 1.531237 1.5316669999999999 1.532702 1.5330980000000001 1.5340480000000001 1.5344139999999999 1.5352840000000001 1.535625 1.536421 1.5367379999999999 1.5374650000000001 1.5377609999999999 1.5384230000000001 1.5387010000000001 1.539304 1.5395650000000001 1.5401119999999999 1.5403579999999999 1.5408539999999999 1.541085 1.5415350000000001 1.5417529999999999 1.54216 1.542365 1.5427329999999999 1.542926 1.543258 1.5434380000000001 1.5437369999999999 1.5439000000000001 1.544168 1.5443039999999999 1.5445450000000001 1.5446329999999999 1.5448500000000001 1.544872 1.545069 1.5450269999999999 1.54521 1.5450900000000001 1.5452669999999999 1.545056 1.5452349999999999 1.544926 1.545115 1.5447109999999999 1.544916 1.544427 1.544654 1.544065 1.544316 1.5436399999999999 1.543919 1.543167 1.5434760000000001 1.5426489999999999 1.542991 1.542082 1.5424599999999999 1.5414620000000001 1.541879 1.5407839999999999 1.5412440000000001 1.540044 1.5405500000000001 1.5392349999999999 1.5397909999999999 1.5383519999999999 1.5389630000000001 1.5373889999999999 1.5380590000000001 1.536338 1.5370729999999999 1.535193 1.5359959999999999 1.533944 1.534821 1.532583 1.533539 1.531101 1.5321400000000001 1.5294859999999999 1.5306139999999999 1.5277270000000001 1.5289489999999999 1.5258119999999999 1.5271330000000001 1.5237270000000001 1.5251520000000001 1.5214570000000001 1.522991 1.5189859999999999 1.520634 1.516297 1.5180629999999999 1.5133700000000001 1.5152589999999999 1.510184 1.5122 1.506718 1.5088649999999999 1.502945 1.505226 1.498839 1.501258 1.49437 1.4969300000000001 1.4895069999999999 1.492211 1.484213 1.4870639999999999 1.478451 1.4814510000000001 1.4721789999999999 1.47533 1.465352 1.468656 1.4579200000000001 1.461379 1.449829 1.453444 1.4410210000000001 1.444793 1.3173809999999999 1.323302 1.297345 1.303461 1.276778 1.2830820000000001 1.2556130000000001 1.2621 1.234974 1.24163 1.2153229999999999 1.2221340000000001 1.1955210000000001 1.2024760000000001 1.175592 1.18268 1.1556340000000001 1.162844 1.1349769999999999 1.1423000000000001 1.113823 1.1212470000000001 1.0925530000000001 1.100068 1.07121 1.078802 1.049928 1.057585 1.0285930000000001 1.0363009999999999 1.0070060000000001 1.0147539999999999 0.98529500000000003 0.99306899999999998 0.96364399999999995 0.97143100000000004 0.94202900000000001 0.94981700000000002 0.92044999999999999 0.92822499999999997 0.89878000000000002 0.90652900000000003 0.87679399999999996 0.88450300000000004 0.85408899999999999 0.86174600000000001 0.83052700000000002 0.838117 0.80674800000000002 0.81425700000000001 0.782833 0.79025000000000001 0.75839400000000001 0.76570400000000005 0.73354200000000003 0.74073100000000003 0.70841600000000005 0.715472 0.68363099999999999 0.69054300000000002 0.66005999999999998 0.666821 0.63679799999999998 0.64339900000000005 0.61278699999999997 0.61921499999999996 0.58822099999999999 0.59446200000000005 0.56306599999999996 0.569106 0.53768400000000005 0.543512 0.51332599999999995 0.51893900000000004 0.49088999999999999 0.49628899999999998 0.46973199999999998 0.474916 0.44848500000000002 0.45344499999999999 0.42632900000000001 0.43105199999999999 0.40363399999999999 0.40810999999999997 0.38223299999999999 0.38646399999999997 0.36256300000000002 0.36655500000000002 0.34424900000000003 0.34800599999999998 0.32677299999999998 0.33029700000000001 0.30869999999999997 0.31198300000000001 0.289522 0.29255199999999998 0.27182699999999999 0.27461200000000002 0.25556899999999999 0.25811800000000001 0.24062900000000001 0.242951 0.226905 0.22901099999999999 0.21429699999999999 0.216196 0.20117199999999999 0.20286000000000001 0.187612 0.189084 0.17516000000000001 0.176428 0.16372500000000001 0.1648 0.153229 0.15412200000000001 0.143595 0.14431799999999972 0.1345919999999986 0.13515499999999459 0.12594299999997885 0.12635399999992281 0.11763799999972051 0.11790399999905481 0.10972199999686502 0.10985199999022476 0.10205699997040275 0.10205799991504165 0.09447999976349801 0.094358999373637176 0.086953998384942527 0.086717996043214091 0.079576990481286441 0.079230978353959314 0.072592951499307515 0.072145897731170222 0.06620078917532965 0.065663590644443437 0.060352225608294632 0.059735615184463853 0.055004592712610101 0.054318028607755656 0.05011363854513342 0.049365288675997897 0.045636608716686608 0.044834579454607379 0.041535840843997758 0.040689624049500668 0.037782667856118182 0.036899484273939263 0.034343902471857861 0.033433596171597114 0.031190388240768682 0.030260939125607747 0.02829898838789693 0.027359093951763145 0.025652915304498147 0.024708919037886315 0.023233738358636943 0.022290781739815888 0.021021701311260001 0.020086896763671019 0.01900012062421998 0.018076869071293928 0.017152158592123424 0.016246725756369373 0.015471029166373822 0.014590061602355821 0.013953631707529373 0.013103686711067732 0.012592832428293545 0.011779572919427196 0.011367766856641828 0.01059313573530108 0.010247355542122734 0.009508161387512138 0.0091962064186555288 0.0084854797441151469 0.0081962445556809302 0.0075053159648769989 0.0072393857994625596 0.006561903397532369 0.0063209356691220292 0.0056538393398573332 0.0054451636223174487 0.0047978571814086286 0.004640894727886459 0.0040332652796433634 0.0039594625996072158 0.0034152951222533447 0.0033788852214077978 0.0029086187601876003 0.0029653054491476189 0.0025520066638801938 0.0026389708470724109 0.0022511379250663506 0.0022996297268916659 0.0019127034848582646 0.0019129767749250207 0.001514867855593995 0.0013956083121245868 0.00098282976022074481 0.00076215424633319659 0.00034445069078789991 3.365271629996543e-05 -0.00037840876427584687 -0.00077772450877114266 -0.0011788559515993223 -0.0016783995251993724 -0.0020631842042319049 -0.0026620805003696856 -0.0030280368257568787 -0.0037190205288761451 -0.0040610214937046906 -0.0048560367304741501 -0.0051710750443271754 -0.0060891560035340993 -0.0063743207432675831 -0.0072696466419676434 -0.0075262600304119151 -0.0083463858627794603 -0.0085793469627902866 -0.0093546808530273143 -0.0095660746902632224 -0.010276579441932672 -0.010471353582384445 -0.011125993255974255 -0.011311953691564723 -0.011933194637712547 -0.012115923649954561 -0.012693645730972748 -0.012876464840976182 -0.013420677983783033 -0.013605328743347751 -0.014126318795519913 -0.014310386437842352 -0.014813267255112051 -0.015014139043720912 -0.015535527257254581 -0.015792616413013844 -0.01637287112018038 -0.016740052447958158 -0.017485431072324916 -0.018027329350557904 -0.018877526406116264 -0.019607884796269386 -0.020456975168712116 -0.021160970317104615 -0.021939300279112936 -0.022404943438323378 -0.022720936249641326 -0.022798385495392259 -0.02257743994613606 -0.02221539943980758 -0.021594364664240109 -0.0209770681630548 -0.020136148469961684 -0.019466799836602808 -0.018577553281045527 -0.017988449636118814 -0.017114191222483598 -0.016635899808816388 -0.015815988143994965 -0.015465154667168274 -0.014803486963386601 -0.014552044730223422 -0.014010387704455327 -0.01383066246442146 -0.013379337160201911 -0.013244621949100846 -0.012859462875337842 -0.012747785589110036 -0.012412224461710322 -0.012310866343590576 -0.012014343185591239 -0.011920159220532606 -0.011665679843728141 -0.01158005231778883 -0.011380951437919395 -0.011300252353393722 -0.011251590318904731 -0.011171509123663138 -0.011194208269267739 -0.011108539487325495 -0.011160003973227209 -0.011077119058848414 -0.011160258831411519 -0.011110138827947891 -0.011240550921861665 -0.011255425164117889 -0.011425240329948481 -0.011510439218067086 -0.011673967104367609 -0.011811564683900143 -0.011895659539777961 -0.012040882698873809 -0.01201309406439172 -0.012119051366904613 -0.011953044478588875 -0.011996973928881285 -0.011659992734700754 -0.011651888264806953 -0.011151426609133812 -0.011123230554233114 -0.010487163191963977 -0.010474108686482134 -0.0097174392526910101 -0.0097395636704629609 -0.0088681120761389346 -0.0089372898639054933 -0.0079548311218504645 -0.0080759340079602296 -0.006999751811380686 -0.0071780740506034862 -0.0060164853981074891 -0.0062546685406082983 -0.0050200475159297847 -0.0053212905475753846 -0.0040258366458587169 -0.004391688484498061 -0.003031204204696773 -0.0034679564731167705 -0.0021370001096466529 -0.0026549038493631208 -0.0014479508568362154 -0.0020498500476643861 -0.0009437410878662721 -0.001619259539553106 -0.00056744036967616793 -0.0012906889711033454 -0.00021488156771257161 -0.00094558771513784555 0.00022564141665025553 -0.00046979781154564534 0.00084738498027735068 0.00020777459695979581 0.0017340798539503299 0.0011294439983158509 0.0028946098839035769 0.0022692553935516331 0.0041971531346652368 0.0035001683604721232 0.005540792481741677 0.0047626400055774502 0.0069174890837334782 0.0060850062746065185 0.0084073667626875306 0.0075488602819357683 0.0099154022997241954 0.0090471084083278419 0.011397378169692144 0.010533727680176054 0.012879075944279516 0.012022773338790045 0.01443888564241865 0.013570021604265421 0.016156034119742365 0.015240463434453986 0.01796971956372017 0.016988372707099395 0.019855105257571785 0.018802927403568658 0.021817106512370815 0.020704449200974331 0.023883179694528703 0.022721052046938792 0.02608837359714224 0.024889337182576278 0.02846711294300271 0.027239108550230758 0.031048585317406726 0.029799490066104616 0.033859513853422674 0.032591525388549814 0.036917032050627109 0.035635036905055449 0.040243993707364964 0.038954990112593221 0.043876357599004732 0.042584069932072602 0.04784429821981092 0.046555862545199465 0.05217695129439557 0.05089648052936515 0.056907948769075324 0.055643576939061232 0.062076272212499728 0.060835420081284682 0.067727010359338369 0.066519978465437085 0.073906778213426741 0.072739239580777798 0.080659921861169367 0.079535607986843795 0.088027405437340528 0.086947016883579989 0.096051971707481254 0.095018940489529663 0.1047863656049203 0.10380915230059717 0.11429637724267304 0.11338564225211889 0.12466102955608827 0.12382915375712272 0.1359657104459446 0.13522500247999553 0.14830233166838225 0.14766271752435095 0.16176724604225648 0.16123780445924574 0.17646142114703756 0.1760529642097467 0.19249747252713242 0.19221883229608663 0.20999609501334657 0.2098571586500397 0.22909007081797511 0.2291017335042719 0.24992518807790115 0.25009734472476419 0.27265326645131016 0.27299489118457237 0.29489329365131312 0.29540549513279929 0.31626248399910939 0.31694329294229046 0.33750690097123898 0.33835832535559307 0.3580075636807204 0.35902963440860364 0.37783952321997066 0.37903024653951989 0.39798380393765853 0.39934821694177813 0.41852850953358217 0.42006970708843178 0.43983283385632765 0.44155691047368323 0.46201395453106403 0.46392697816659434 0.48441499022518764 0.48651699595882558 0.50629099849410475 0.50858099952320113 0.52680499989167762 0.52927700000265554 0.5460880000225572 0.5487340000179538 0.5650700000104667 0.56788800000519457 0.58437400000232664 0.5873660000009624 0.60404500000037042 0.60721200000013387 0.62513300000004501 0.62847900000001455 0.64812800000000459 0.65165900000000121 0.67188800000000004 0.67560399999999998 0.69365399999999999 0.697542 0.71612399999999998 0.72018000000000004 0.73979300000000003 0.74401700000000004 0.76160899999999998 0.76598699999999997 0.78181199999999995 0.786331 0.80190600000000001 0.80655900000000003 0.822384 0.82716500000000004 0.84306199999999998 0.84796499999999997 0.86526899999999995 0.87029000000000001 0.88947500000000002 0.89461199999999996 0.91584299999999996 0.92109099999999999 0.944523 0.94987699999999997 0.97082900000000005 0.97627299999999995 0.99493900000000002 1.000456 1.0204500000000001 1.026033 1.048252 1.053893 1.0785309999999999 1.084219 1.108142 1.1138650000000001 1.135308 1.141051 1.160226 1.165977 1.183095 1.188842 1.2040789999999999 1.209808 1.223344 1.2290460000000001 1.241028 1.2466900000000001 1.2572700000000001 1.2628839999999999 1.2721830000000001 1.277738 1.2858860000000001 1.291374 1.2984709999999999 1.3038829999999999 1.3103009999999999 1.315628 1.3216570000000001 1.3268899999999999 1.3328629999999999 1.3379920000000001 1.3442179999999999 1.3492329999999999 1.356277 1.3611629999999999 1.3694219999999999 1.3741620000000001 1.383737 1.3883160000000001 1.3972260000000001 1.401643 1.4096120000000001 1.4138660000000001 1.4209849999999999 1.4250780000000001 1.4314290000000001 1.4353610000000001 
0.038151999999999998 0.037325999999999998 0.035491000000000002 0.034675999999999998 0.032974000000000003 0.032170999999999998 0.030606000000000001 0.029815999999999999 0.028393999999999999 0.027618 0.026336999999999999 0.025576000000000002 0.024424999999999999 0.023681000000000001 0.022644000000000001 0.021919000000000001 0.020985 0.020281 0.019439999999999999 0.018758 0.018001 0.017344999999999999 0.016664000000000002 0.016032000000000001 0.015417999999999999 0.014813 0.014259000000000001 0.013681 0.013184 0.012633999999999999 0.012187999999999999 0.011665 0.011266999999999999 0.010770999999999999 0.010416 0.0099469999999999992 0.0096349999999999995 0.0091909999999999995 0.0089189999999999998 0.0085000000000000006 0.0082629999999999995 0.007868 0.0076649999999999999 0.0072940000000000001 0.0071190000000000003 0.0067720000000000002 0.0066239999999999997 0.0062989999999999999 0.0061710000000000003 0.005868 0.005757 0.0054749999999999998 0.0053790000000000001 0.0051180000000000002 0.0050340000000000003 0.0047930000000000004 0.004718 0.0044949999999999999 0.0044270000000000004 0.0042230000000000002 0.0041599999999999996 0.0039719999999999998 0.0039139999999999999 0.0037420000000000001 0.0036879999999999999 0.0035309999999999999 0.00348 0.003336 0.0032889999999999998 0.0031570000000000001 0.0031129999999999999 0.0029919999999999999 0.0029520000000000002 0.0028400000000000001 0.0028050000000000002 0.0027009999999999998 0.0026700000000000001 0.0025720000000000001 0.0025469999999999998 0.002454 0.0024350000000000001 0.002346 0.002333 0.0022469999999999999 0.002238 0.0021540000000000001 0.00214 0.0020579999999999999 0.0020209999999999998 0.0019430000000000001 0.001856 0.0017819999999999999 0.001629 0.001562 0.0013500000000000001 0.001294 0.001018 0.000977 0.00065499999999999998 0.00063100000000000005 0.00029100000000000003 0.00028499999999999999 -5.1999999999999997e-05 -4.3000000000000002e-05 -0.00034900000000000003 -0.00032899999999999997 -0.00057600000000000001 -0.00055000000000000003 -0.00073200000000000001 -0.00070399999999999998 -0.00081099999999999998 -0.00078399999999999997 -0.00083100000000000003 -0.00080900000000000004 -0.00082100000000000001 -0.00080400000000000003 -0.00080000000000000004 -0.00078899999999999999 -0.000776 -0.00077200000000000001 -0.00075199999999999996 -0.00075299999999999998 -0.00072599999999999997 -0.00073200000000000001 -0.00069800000000000005 -0.00070799999999999997 -0.00066799999999999997 -0.00068199999999999999 -0.00063599999999999996 -0.00065300000000000004 -0.00059999999999999995 -0.00062100000000000002 -0.00056300000000000002 -0.00058699999999999996 -0.00052300000000000003 -0.00054900000000000001 -0.00047800000000000002 -0.00050699999999999996 -0.00042999999999999999 -0.00046099999999999998 -0.000377 -0.00041100000000000002 -0.000321 -0.000357 -0.00025799999999999998 -0.00029599999999999998 -0.00019100000000000001 -0.00023000000000000001 -0.000117 -0.00015699999999999999 -3.8000000000000002e-05 -7.8999999999999996e-05 4.8000000000000001e-05 6.9999999999999999e-06 0.00014100000000000001 0.0001 0.000242 0.00020100000000000001 0.00035 0.00031100000000000002 0.000464 0.000426 0.00058200000000000005 0.00054500000000000002 0.00070200000000000004 0.00066699999999999995 0.00082299999999999995 0.00079100000000000004 0.00093999999999999997 0.00091200000000000005 0.0010499999999999999 0.0010280000000000001 0.0011529999999999999 0.001137 0.0012459999999999999 0.0012390000000000001 0.0013259999999999999 0.0013320000000000001 0.0013960000000000001 0.0014159999999999999 0.0014580000000000001 0.0014959999999999999 0.040957 0.040120999999999997 0.043906000000000001 0.043062000000000003 0.046827000000000001 0.045978999999999999 0.049727 0.048876000000000003 0.052453 0.051603999999999997 0.054944 0.054100000000000002 0.057346000000000001 0.056513000000000001 0.059660999999999999 0.058840000000000003 0.061872000000000003 0.061067000000000003 0.064054 0.063268000000000005 0.066184999999999994 0.065420000000000006 0.068222000000000005 0.067480999999999999 0.070161000000000001 0.069446999999999995 0.071990999999999999 0.071304999999999993 0.073719999999999994 0.073065000000000005 0.075365000000000001 0.074742000000000003 0.076915999999999998 0.076327000000000006 0.078357999999999997 0.077803999999999998 0.079694000000000001 0.079175999999999996 0.080923999999999996 0.080442 0.082055000000000003 0.081610000000000002 0.083098000000000005 0.08269 0.084069000000000005 0.083698999999999996 0.084973000000000007 0.084640000000000007 0.085782999999999998 0.085485000000000005 0.086491999999999999 0.086231000000000002 0.087112999999999996 0.086887000000000006 0.087640999999999997 0.087448999999999999 0.088070999999999997 0.087912000000000004 0.088394 0.088266999999999998 0.088599999999999998 0.088503999999999999 0.088696999999999998 0.088631000000000001 0.088693999999999995 0.088655999999999999 0.088588 0.088576000000000002 0.088373999999999994 0.088386999999999993 0.088055999999999995 0.088092000000000004 0.087650000000000006 0.087707999999999994 0.087177000000000004 0.087256 0.086627999999999997 0.086726999999999999 0.085971000000000006 0.086087999999999998 0.085181000000000007 0.085314000000000001 0.084268999999999997 0.084416000000000005 0.083310999999999996 0.083470000000000003 0.082328999999999999 0.082500000000000004 0.081314999999999998 0.081495999999999999 0.080243999999999996 0.080434000000000005 0.079029000000000002 0.079224000000000003 0.077636999999999998 0.077831999999999998 0.076257000000000005 0.076452000000000006 0.074901999999999996 0.075093999999999994 0.073567999999999995 0.073757000000000003 0.072246000000000005 0.072429999999999994 0.070929000000000006 0.071108000000000005 0.069447999999999996 0.069617999999999999 0.067818000000000003 0.067974999999999994 0.066227999999999995 0.066370999999999999 0.064673999999999995 0.064801999999999998 0.063150999999999999 0.063263000000000139 0.061652000000000415 0.06174700000000178 0.060148000000007321 0.060227000000028015 0.058601000000106256 0.058660000000376501 0.057011000001324912 0.057050000004353348 0.055394000014033912 0.055411000042528843 0.053722000125168479 0.053715000349137676 0.05196300094432435 0.051931002429473336 0.050111006083701969 0.05005001447729359 0.04818903382329371 0.048099074758579684 0.046267162854003528 0.046146334250464958 0.044406671227487447 0.044255270716983861 0.042608345418782577 0.042429095360130918 0.040870955710158356 0.040664219072673376 0.03919857969466909 0.038969268416552662 0.037611122001254514 0.037361002783010126 0.036107649824087928 0.035841277576632295 0.034680362363911796 0.034397499744433402 0.033335995809829676 0.033034189317674698 0.032076473019088045 0.031757345411121428 0.030895438541996161 0.03055956864189709 0.029776553785359372 0.029426458600826867 0.028716141347551186 0.028353803207854165 0.027709241567681026 0.027338680692845063 0.026756680889423887 0.026382278139225491 0.025856497664951288 0.025477930028775485 0.024992768770923508 0.024609174626812932 0.024142744689573111 0.023749840268504626 0.023298542812773382 0.022895136164127611 0.022474152675305684 0.022063357550767108 0.021704397568927114 0.021297711447649349 0.021036566233691177 0.02065145514129961 0.0204979881643906 0.020153620084801368 0.020083908428851015 0.019791022590632094 0.019775112605291155 0.019534268602458309 0.019535816785031055 0.019329030171295846 0.019301767695163657 0.019098433398216336 0.018999989849638417 0.018763200888867727 0.018487242272413159 0.018206473771447417 0.017845295914877959 0.017538391150551138 0.017171974379345346 0.016868775891898394 0.016564695936771845 0.016294100594150682 0.016093999741114175 0.015878119932770027 0.015743148339854449 0.015596587696800744 0.015514121371102804 0.01542574956484262 0.015354092790221567 0.01531284945862481 0.015222122078656076 0.015219123620419222 0.015153028565836639 0.015177491419075253 0.015050222158492787 0.01509810483155655 0.014796060013390649 0.014866064149479557 0.014440111610972714 0.014533231537335716 0.014003487247668913 0.014126009396255888 0.013582041939056055 0.013738975608079098 0.01320349164035451 0.013401531037253805 0.012950611790363699 0.013193539968317571 0.012725953160663921 0.013022355450688259 0.012544917753468563 0.012903525948019075 0.012455536102046982 0.012874131955299949 0.012400353663600393 0.012861689290509893 0.012365073435153256 0.012846374451863036 0.012321272125326743 0.012792851453232681 0.012229667153020219 0.012696468117201983 0.01213079903769897 0.01262344577166663 0.012066770071660276 0.012585744751107882 0.012065323485375078 0.012571661429550379 0.011947425216760935 0.012338814813182431 0.011401576666602773 0.011534931153081853 0.010291505714253215 0.010218130733994305 0.0089163274552355471 0.0087493571951370412 0.0073439185101988958 0.0071847731066772792 0.0058247400536881174 0.005825075235044724 0.0046523688613547042 0.0048667722160504676 0.0038887031684218523 0.0042683905257164343 0.0034369232570397026 0.0039309656454655176 0.003244374927935625 0.0037879143157226848 0.0031957586902242483 0.0037681187439215823 0.0032444504050169998 0.0038333742872394302 0.0033819243065816859 0.0039886319777456434 0.0035884215174555364 0.0042125024888501729 0.0038401472506835988 0.0044683300853789968 0.0040845583311595627 0.004696440020868449 0.0042798012525600143 0.0048609678907716473 0.0043625744019742006 0.0049138427472563972 0.0042562656476638197 0.0047973118346683651 0.0040851782928247515 0.0046297489926605921 0.0038890786254264964 0.004433208119367169 0.0036507372820351654 0.004175301990512136 0.0033325247238037217 0.0038239954709580679 0.0029070484868980316 0.0033683642582760511 0.0023800901404019076 0.0028191263185941796 0.0017780114748989018 0.0022070158547835032 0.0011283763876038756 0.0015622835538005068 0.00044871713835027639 0.00089210655323380679 -0.00024544641821400528 0.00020869510767432592 -0.00095449929388300749 -0.00049663448220230969 -0.001692794940402394 -0.0012347155415756445 -0.0024721111801879292 -0.0020172504260894913 -0.0033014261582381679 -0.0028505538376192843 -0.0041961095814096678 -0.0037498530459902889 -0.0051868429834836093 -0.0047460234172932705 -0.0063020076085582976 -0.0058679439157044563 -0.0075695294289485375 -0.0071443191929704388 -0.0090235542723171927 -0.0086092012641729616 -0.010683938048407712 -0.010286993211687486 -0.01240860896816596 -0.01203787851019505 -0.014073949072403148 -0.013740134889345664 -0.015699389621864634 -0.015402931493151251 -0.017275270076294456 -0.017005473329286425 -0.018759369230996078 -0.018486428544089686 -0.02007605341131067 -0.019762416326292647 -0.021138774377126839 -0.020760400478949875 -0.02196514025649287 -0.021537938543306444 -0.02268054969917703 -0.022255147880414061 -0.023417772001315465 -0.023047714341941996 -0.024323573884968936 -0.024035001535344991 -0.025466477211809085 -0.025242757294375737 -0.026797136983733479 -0.026587270131649778 -0.028067677412747571 -0.027796333126264131 -0.029049715473765756 -0.028641134757802382 -0.029601371441546436 -0.029025875307524339 -0.029722997978186345 -0.029025946076431008 -0.029584938602554098 -0.028857566183161633 -0.029360383195599627 -0.028679137818054711 -0.029199695455535794 -0.028614867249385376 -0.029203564554129549 -0.028723669995831567 -0.029402436230392938 -0.029004317402733518 -0.029760808394555832 -0.029406560603466324 -0.030203346261171767 -0.029866673122016518 -0.03066793278342804 -0.030333614354497277 -0.031139001691612433 -0.03080476543637508 -0.031645296592366937 -0.031311836336495355 -0.032199793260090939 -0.031864027383768714 -0.032749203188271056 -0.032409050793754009 -0.033284962218781633 -0.03294264247472501 -0.033828810624918847 -0.033489165613539693 -0.034384339276780689 -0.034037873784911299 -0.034922948044723415 -0.034546576638176014 -0.035390799448984753 -0.034959231647795679 -0.035741535787911817 -0.035247165969433628 -0.035978461277145948 -0.035454549972050269 -0.036188187939328535 -0.035694417019745697 -0.036500127209575614 -0.03608999488828471 -0.037015404478438936 -0.036705660471716098 -0.037754644692741667 -0.03752532248882437 -0.038672149579878287 -0.038490906054351771 -0.039700349467387347 -0.039541189546425048 -0.04079119550805297 -0.040644166623201756 -0.04192621719871821 -0.041789700159013954 -0.04310034116344786 -0.042977752886001516 -0.044326462411621456 -0.044217883784759431 -0.045612323386350358 -0.04551808554472056 -0.046958494814833357 -0.046880880689398864 -0.048350683575304754 -0.048289171978507968 -0.049776788764569396 -0.049730426403579719 -0.051074423218021935 -0.051039310659892631 -0.05221648103185323 -0.052191720758271047 -0.053249586755165348 -0.053232748981706837 -0.054146574836077779 -0.05413794543496793 -0.054913511187897918 -0.054910435932321595 -0.055594124875791115 -0.05559549904865143 -0.05619134076189377 -0.056195354414625469 -0.0567091431993701 -0.056713332576245688 -0.057145527035111339 -0.057146424881030944 -0.057482774953953208 -0.057476405934074014 -0.057710206250008944 -0.057693100350433492 -0.057820047573029519 -0.057790021294780197 -0.057821009273979686 -0.057775003786367823 -0.057714001493174925 -0.057650000558123242 -0.057497000200374654 -0.057414000069035249 -0.057167000022773876 -0.057063000007172696 -0.05669900000212897 -0.056573000000617969 -0.056078000000168236 -0.055929000000045637 -0.055338000000011899 -0.055165000000003052 -0.054558000000000773 -0.054360000000000179 -0.053638000000000068 -0.053413000000000002 -0.052562999999999999 -0.052311000000000003 -0.051471999999999997 -0.051192000000000001 -0.050356999999999999 -0.050049000000000003 -0.049140000000000003 -0.048802999999999999 -0.047792000000000001 -0.047425000000000002 -0.046321000000000001 -0.045927000000000003 -0.044625999999999999 -0.044204 -0.042667999999999998 -0.042219 -0.040430000000000001 -0.039956999999999999 -0.037893000000000003 -0.037398000000000001 -0.035468 -0.034953999999999999 -0.033140000000000003 -0.03261 -0.030557999999999998 -0.030016000000000001 -0.027635 -0.027085999999999999 -0.024374 -0.023820000000000001 -0.021146999999999999 -0.020594000000000001 -0.018175 -0.017628000000000001 -0.01545 -0.014914 -0.012964 -0.012442 -0.010704 -0.010201999999999999 -0.0086739999999999994 -0.0081930000000000006 -0.0068739999999999999 -0.0064180000000000001 -0.0052969999999999996 -0.0048669999999999998 -0.0039379999999999997 -0.0035360000000000001 -0.0027889999999999998 -0.0024160000000000002 -0.0018370000000000001 -0.0014909999999999999 -0.0010449999999999999 -0.000727 -0.00038999999999999999 -0.0001 0.00014999999999999999 0.00041199999999999999 0.00058799999999999998 0.00082399999999999997 0.000941 0.0011509999999999999 0.001214 0.0013979999999999999 0.0014059999999999999 0.0015640000000000001 0.0015089999999999999 0.001642 0.001547 0.001655 0.001542 0.0016249999999999999 0.0015089999999999999 0.0015679999999999999 