# crys export
TITLE="FE Surface Data ASCII"
VARIABLES="X", "Y", "Z", "T", "Hw", "Hi", "HTC", "Beta", "TauX", "TauY", "TauZ"
ZONE T="WALL_2000"
NODES=720
ELEMENTS=720
DATAPACKING=BLOCK
ZONETYPE=FETRIANGLE
VARLOCATION=([4-11]=CELLCENTERED)
1.335812 1.3415379999999999 1.3527659999999999 1.3583000000000001 1.3683639999999999 1.3737060000000001 1.3827179999999999 1.387867 1.395929 1.400887 1.408091 1.4128579999999999 1.419287 1.4238649999999999 1.4295960000000001 1.433986 1.4390860000000001 1.44329 1.4478249999999999 1.4518439999999999 1.4558709999999999 1.459708 1.4632810000000001 1.4669380000000001 1.4701040000000001 1.473584 1.4763869999999999 1.4796940000000001 1.482175 1.485311 1.4875050000000001 1.4904740000000001 1.492416 1.4952220000000001 1.496939 1.4995860000000001 1.5011080000000001 1.5035989999999999 1.504948 1.5072890000000001 1.5084869999999999 1.510683 1.511749 1.513803 1.5147539999999999 1.5166729999999999 1.5175240000000001 1.5193129999999999 1.520076 1.5217400000000001 1.5224260000000001 1.523971 1.5245919999999999 1.5260229999999999 1.526586 1.527909 1.5284219999999999 1.5296430000000001 1.5301119999999999 1.531237 1.5316669999999999 1.532702 1.5330980000000001 1.5340480000000001 1.5344139999999999 1.5352840000000001 1.535625 1.536421 1.5367379999999999 1.5374650000000001 1.5377609999999999 1.5384230000000001 1.5387010000000001 1.539304 1.5395650000000001 1.5401119999999999 1.5403579999999999 1.5408539999999999 1.541085 1.5415350000000001 1.5417529999999999 1.54216 1.542365 1.5427329999999999 1.542926 1.543258 1.5434380000000001 1.5437369999999999 1.5439000000000001 1.544168 1.5443039999999999 1.5445450000000001 1.5446329999999999 1.5448500000000001 1.544872 1.545069 1.5450269999999999 1.54521 1.5450900000000001 1.5452669999999999 1.545056 1.5452349999999999 1.544926 1.545115 1.5447109999999999 1.544916 1.544427 1.544654 1.544065 1.544316 1.5436399999999999 1.543919 1.543167 1.5434760000000001 1.5426489999999999 1.542991 1.542082 1.5424599999999999 1.5414620000000001 1.541879 1.5407839999999999 1.5412440000000001 1.540044 1.5405500000000001 1.5392349999999999 1.5397909999999999 1.5383519999999999 1.5389630000000001 1.5373889999999999 1.5380590000000001 1.536338 1.5370729999999999 1.535193 1.5359959999999999 1.533944 1.534821 1.532583 1.533539 1.531101 1.5321400000000001 1.5294859999999999 1.5306139999999999 1.5277270000000001 1.5289489999999999 1.5258119999999999 1.5271330000000001 1.5237270000000001 1.5251520000000001 1.5214570000000001 1.522991 1.5189859999999999 1.520634 1.516297 1.5180629999999999 1.5133700000000001 1.5152589999999999 1.510184 1.5122 1.506718 1.5088649999999999 1.502945 1.505226 1.498839 1.501258 1.49437 1.4969300000000001 1.4895069999999999 1.492211 1.484213 1.4870639999999999 1.478451 1.4814510000000001 1.4721789999999999 1.47533 1.465352 1.468656 1.4579200000000001 1.461379 1.449829 1.453444 1.4410210000000001 1.444793 1.3173809999999999 1.323302 1.297345 1.303461 1.276778 1.2830820000000001 1.2556130000000001 1.2621 1.234974 1.24163 1.2153229999999999 1.2221340000000001 1.1955210000000001 1.2024760000000001 1.175592 1.18268 1.1556340000000001 1.162844 1.1349769999999999 1.1423000000000001 1.113823 1.1212470000000001 1.0925530000000001 1.100068 1.07121 1.078802 1.049928 1.057585 1.0285930000000001 1.0363009999999999 1.0070060000000001 1.0147539999999999 0.98529500000000003 0.99306899999999998 0.96364399999999995 0.97143100000000004 0.94202900000000001 0.94981700000000002 0.92044999999999999 0.92822499999999997 0.89878000000000002 0.90652900000000003 0.87679399999999996 0.88450300000000004 0.85408899999999999 0.86174600000000001 0.83052700000000002 0.838117 0.80674800000000002 0.81425700000000001 0.782833 0.79025000000000001 0.75839400000000001 0.76570400000000005 0.73354200000000003 0.74073100000000003 0.70841600000000005 0.715472 0.68363099999999999 0.69054300000000002 0.66005999999999998 0.666821 0.63679799999999998 0.64339900000000005 0.61278699999999997 0.61921499999999996 0.58822099999999999 0.59446200000000005 0.56306599999999996 0.569106 0.53768400000000005 0.543512 0.51332599999999995 0.51893900000000004 0.49088999999999999 0.49628899999999998 0.46973199999999998 0.474916 0.44848500000000002 0.45344499999999999 0.42632900000000001 0.43105199999999999 0.40363399999999999 0.40810999999999997 0.38223299999999999 0.38646399999999997 0.36256300000000002 0.36655500000000002 0.34424900000000003 0.34800599999999998 0.32677299999999998 0.33029700000000001 0.30869999999999997 0.31198300000000001 0.289522 0.29255199999999998 0.27182699999999999 0.27461200000000002 0.25556899999999999 0.25811800000000001 0.24062900000000001 0.242951 0.226905 0.22901099999999999 0.21429699999999999 0.216196 0.20117199999999999 0.20286000000000001 0.187612 0.189084 0.17516000000000001 0.176428 0.16372500000000001 0.1648 0.153229 0.15412200000000001 0.143595 0.144318 0.13459199999999999 0.135155 0.125943 0.12635399999999999 0.11763800000000001 0.11790399999999999 0.109722 0.10985200000000001 0.10205699999999999 0.102058 0.094479999999999995 0.094358999999999998 0.086954000000000004 0.086718000000000003 0.079576999999999995 0.079230999999999996 0.072593000000000005 0.072146000000000002 0.066200999999999996 0.065663999999999029 0.060352999999909264 0.059736999996550993 0.055006999912970402 0.054321998669326431 0.050119984372670845 0.04937487798257461 0.04565025493227802 0.04485186285814665 0.041553921106211852 0.040703789876757872 0.037789643006634302 0.036900166621396932 0.03434206338719193 0.033432725452823976 0.031191837805550363 0.030264649522799912 0.028304184389035456 0.027364858134292208 0.025658282388246596 0.024713306184668056 0.023236804875443794 0.022292746063418571 0.02102302122044461 0.02008823149982723 0.019001755789938065 0.018078396753539921 0.017152054770083656 0.016242624024329532 0.015459981874306267 0.014569676229375925 0.013922601629305186 0.013062765441869415 0.012544953111391212 0.01172981065695587 0.011323120607026799 0.01056146353618484 0.010236292803581327 0.0095228177171452003 0.0092379022959088019 0.0085516390854578784 0.0082827180436703621 0.0076082952060158348 0.0073554722183233421 0.006687193046333831 0.0064506183898068612 0.0057826377401248973 0.0055653300635177738 0.0048969584021685483 0.0046991305028706671 0.0040271603861963693 0.0038726525313870128 0.0032446916577901276 0.0031475082694251626 0.0026655022789683919 0.0027654123748452808 0.0024356324959151328 0.0026179313894077023 0.0023083709442550397 0.0024021775753489192 0.0020263077347580623 0.0020128580707306359 0.0015907127064487376 0.0014472096076605849 0.0010158828983368126 0.00078198848163165097 0.00035599908975127197 3.9999954325643779e-05 -0.00037500000176675033 -0.00077600000003750147 -0.0011780000000004339 -0.001678 -0.0020630000000000002 -0.0026619999999999999 -0.0030279999999999999 -0.0037190000000000001 -0.0040610000000000004 -0.0048560000000000001 -0.0051710000000000002 -0.0060889999999999998 -0.0063740000000000003 -0.0072690000000011435 -0.0075250000000973601 -0.0083440000038445799 -0.0085750000880722571 -0.0093470013789746734 -0.0095530148713240445 -0.010255118479986667 -0.010437683384138459 -0.011075962459279241 -0.011242541310846047 -0.01184281249192096 -0.012003361490865103 -0.012556177909778558 -0.012710132948937745 -0.013223234079928689 -0.013378262438585824 -0.013875234342716898 -0.014042065746829369 -0.014533215867164087 -0.01472037529240014 -0.015202596309141577 -0.015355009298252941 -0.015738961294956361 -0.015826968680898709 -0.016248407898959632 -0.016475037807296502 -0.017057448487986196 -0.01761775298801076 -0.01847569369477357 -0.019388013729981942 -0.020481330177571578 -0.021230650095249652 -0.021617670353153106 -0.021452672945783874 -0.020815842602461606 -0.020066353798084847 -0.019185573045881088 -0.018495227729643033 -0.017705336838000595 -0.017077137285663461 -0.01621505305233336 -0.015630565775489377 -0.014753262996349976 -0.014286529088876591 -0.013500480940822655 -0.013197445170885077 -0.012571148690416933 -0.012333951113848402 -0.011783799511468985 -0.011568407045093546 -0.011047253469008717 -0.010842828679783721 -0.010381461715992437 -0.010216084973425589 -0.0097702437085146181 -0.0095588407858361434 -0.0092823752690732939 -0.0093243374678984529 -0.0090882899417306963 -0.0093505887987273602 -0.0096023835015854146 -0.01046518160876251 -0.011110612425552967 -0.011254813619258857 -0.011381299370354163 -0.011250172643059586 -0.011375311904278098 -0.011603867520230017 -0.01176712966690403 -0.011649622431111778 -0.011482257848147746 -0.011286820519995916 -0.011291884096735594 -0.011271612675317729 -0.011399974582998757 -0.011545514111943446 -0.011651916684078951 -0.011805549317060345 -0.01176387496674761 -0.011833572822265655 -0.011620650571891033 -0.011612564576693451 -0.011225686362566703 -0.011174673089680096 -0.010645750431725861 -0.010607784024493708 -0.0099804987141468623 -0.0099892312902330211 -0.0092620484744643638 -0.009316977969979795 -0.008481366868764318 -0.0085891118295841722 -0.0076486026193429146 -0.0078139181579348262 -0.0067829147092929188 -0.0070057417516151237 -0.0058874469368335935 -0.0061682980701187927 -0.0049783362825455068 -0.0053294412140077402 -0.0040914306640039864 -0.0045214275380975966 -0.0032300497597458648 -0.0037304275538098909 -0.0024551299220492932 -0.0030127401719284488 -0.0018316959942100766 -0.0024458556449025231 -0.0013400322883340026 -0.0020012108198205307 -0.00091842051194650166 -0.0015916426187866735 -0.00045025897358761909 -0.0011032401950625552 0.0001519955749285467 -0.00045196918307185041 0.00095935642659926261 0.00042139887158083785 0.0020367665060282087 0.0015001957486722815 0.0032935838121529483 0.0026487085425907979 0.0045145123866874304 0.0037210479469360958 0.005645809134062563 0.0047461005930382986 0.0067898631538470498 0.0058768685379413923 0.0081622039799726237 0.0073255658359782224 0.0097706410796843616 0.0090308446064384148 0.011548444080303482 0.010875924566428654 0.013411198308185972 0.0127295104438907 0.015276059916343929 0.014491374274669686 0.017108983543036863 0.016178042996385904 0.018855338492176056 0.017796696707299695 0.020571169868261966 0.019420615505005224 0.022335704750958561 0.021128204413357402 0.024217903866032627 0.022975368055921201 0.026271286418650664 0.025012741445266481 0.0285431356758441 0.02728119125044182 0.031067926295067327 0.029804651005580721 0.0338542715900274 0.032576032540572772 0.036889359869178705 0.035594268986135477 0.040192206476821611 0.03889787348072072 0.043821303714937185 0.042537653158759035 0.047810412497063699 0.046535320940921582 0.052168830238864504 0.050899149873828979 0.056920289360517684 0.055664911906581349 0.062106156960665793 0.060873002291022493 0.067770044591259251 0.066564338817110907 0.07394728888831241 0.072774285860605983 0.080696436254092216 0.079590898336824603 0.088104311730534596 0.087035288259394106 0.096128757312466576 0.095073588084109109 0.10481893286708753 0.10382517105351646 0.11430146083046823 0.11338425257269236 0.12465615181638594 0.12382288340141269 0.13595938502461663 0.13521936286122618 0.14829772132321081 0.14765915290014384 0.1617646313373757 0.16123590978835964 0.17646003078736042 0.17605182556493837 0.19249640815787553 0.1922177025281141 0.20999487752111737 0.20985589910603852 0.22908891490818586 0.22910083114565766 0.2499246848040462 0.25009724382424076 0.27265345652206274 0.27299515280307463 0.29489345247613075 0.29540545034680349 0.31626222168973772 0.31694282557435366 0.33750634147920644 0.33835796709795729 0.35800779986601045 0.35903059755876154 0.37784094151315045 0.37903166215711104 0.39798492164881066 0.39934898683424941 0.41852899840165481 0.4200699998612718 0.43983299999175796 0.44155699999967218 0.46201399999999243 0.46392699999999998 0.48441499999999998 0.48651699999999998 0.50629100000000005 0.50858099999999995 0.52680499999999997 0.529277 0.54608800000000002 0.54873400000000006 0.56506999999999996 0.56788799999999995 0.58437399999999995 0.58736600000000005 0.60404500000000005 0.60721199999999997 0.62513300000000005 0.62847900000000001 0.64812800000000004 0.65165899999999999 0.67188800000000004 0.67560399999999998 0.69365399999999999 0.697542 0.71612399999999998 0.72018000000000004 0.73979300000000003 0.74401700000000004 0.76160899999999998 0.76598699999999997 0.78181199999999995 0.786331 0.80190600000000001 0.80655900000000003 0.822384 0.82716500000000004 0.84306199999999998 0.84796499999999997 0.86526899999999995 0.87029000000000001 0.88947500000000002 0.89461199999999996 0.91584299999999996 0.92109099999999999 0.944523 0.94987699999999997 0.97082900000000005 0.97627299999999995 0.99493900000000002 1.000456 1.0204500000000001 1.026033 1.048252 1.053893 1.0785309999999999 1.084219 1.108142 1.1138650000000001 1.135308 1.141051 1.160226 1.165977 1.183095 1.188842 1.2040789999999999 1.209808 1.223344 1.2290460000000001 1.241028 1.2466900000000001 1.2572700000000001 1.2628839999999999 1.2721830000000001 1.277738 1.2858860000000001 1.291374 1.2984709999999999 1.3038829999999999 1.3103009999999999 1.315628 1.3216570000000001 1.3268899999999999 1.3328629999999999 1.3379920000000001 1.3442179999999999 1.3492329999999999 1.356277 1.3611629999999999 1.3694219999999999 1.3741620000000001 1.383737 1.3883160000000001 1.3972260000000001 1.401643 1.4096120000000001 1.4138660000000001 1.4209849999999999 1.4250780000000001 1.4314290000000001 1.4353610000000001 
0.038151999999999998 0.037325999999999998 0.035491000000000002 0.034675999999999998 0.032974000000000003 0.032170999999999998 0.030606000000000001 0.029815999999999999 0.028393999999999999 0.027618 0.026336999999999999 0.025576000000000002 0.024424999999999999 0.023681000000000001 0.022644000000000001 0.021919000000000001 0.020985 0.020281 0.019439999999999999 0.018758 0.018001 0.017344999999999999 0.016664000000000002 0.016032000000000001 0.015417999999999999 0.014813 0.014259000000000001 0.013681 0.013184 0.012633999999999999 0.012187999999999999 0.011665 0.011266999999999999 0.010770999999999999 0.010416 0.0099469999999999992 0.0096349999999999995 0.0091909999999999995 0.0089189999999999998 0.0085000000000000006 0.0082629999999999995 0.007868 0.0076649999999999999 0.0072940000000000001 0.0071190000000000003 0.0067720000000000002 0.0066239999999999997 0.0062989999999999999 0.0061710000000000003 0.005868 0.005757 0.0054749999999999998 0.0053790000000000001 0.0051180000000000002 0.0050340000000000003 0.0047930000000000004 0.004718 0.0044949999999999999 0.0044270000000000004 0.0042230000000000002 0.0041599999999999996 0.0039719999999999998 0.0039139999999999999 0.0037420000000000001 0.0036879999999999999 0.0035309999999999999 0.00348 0.003336 0.0032889999999999998 0.0031570000000000001 0.0031129999999999999 0.0029919999999999999 0.0029520000000000002 0.0028400000000000001 0.0028050000000000002 0.0027009999999999998 0.0026700000000000001 0.0025720000000000001 0.0025469999999999998 0.002454 0.0024350000000000001 0.002346 0.002333 0.0022469999999999999 0.002238 0.0021540000000000001 0.00214 0.0020579999999999999 0.0020209999999999998 0.0019430000000000001 0.001856 0.0017819999999999999 0.001629 0.001562 0.0013500000000000001 0.001294 0.001018 0.000977 0.00065499999999999998 0.00063100000000000005 0.00029100000000000003 0.00028499999999999999 -5.1999999999999997e-05 -4.3000000000000002e-05 -0.00034900000000000003 -0.00032899999999999997 -0.00057600000000000001 -0.00055000000000000003 -0.00073200000000000001 -0.00070399999999999998 -0.00081099999999999998 -0.00078399999999999997 -0.00083100000000000003 -0.00080900000000000004 -0.00082100000000000001 -0.00080400000000000003 -0.00080000000000000004 -0.00078899999999999999 -0.000776 -0.00077200000000000001 -0.00075199999999999996 -0.00075299999999999998 -0.00072599999999999997 -0.00073200000000000001 -0.00069800000000000005 -0.00070799999999999997 -0.00066799999999999997 -0.00068199999999999999 -0.00063599999999999996 -0.00065300000000000004 -0.00059999999999999995 -0.00062100000000000002 -0.00056300000000000002 -0.00058699999999999996 -0.00052300000000000003 -0.00054900000000000001 -0.00047800000000000002 -0.00050699999999999996 -0.00042999999999999999 -0.00046099999999999998 -0.000377 -0.00041100000000000002 -0.000321 -0.000357 -0.00025799999999999998 -0.00029599999999999998 -0.00019100000000000001 -0.00023000000000000001 -0.000117 -0.00015699999999999999 -3.8000000000000002e-05 -7.8999999999999996e-05 4.8000000000000001e-05 6.9999999999999999e-06 0.00014100000000000001 0.0001 0.000242 0.00020100000000000001 0.00035 0.00031100000000000002 0.000464 0.000426 0.00058200000000000005 0.00054500000000000002 0.00070200000000000004 0.00066699999999999995 0.00082299999999999995 0.00079100000000000004 0.00093999999999999997 0.00091200000000000005 0.0010499999999999999 0.0010280000000000001 0.0011529999999999999 0.001137 0.0012459999999999999 0.0012390000000000001 0.0013259999999999999 0.0013320000000000001 0.0013960000000000001 0.0014159999999999999 0.0014580000000000001 0.0014959999999999999 0.040957 0.040120999999999997 0.043906000000000001 0.043062000000000003 0.046827000000000001 0.045978999999999999 0.049727 0.048876000000000003 0.052453 0.051603999999999997 0.054944 0.054100000000000002 0.057346000000000001 0.056513000000000001 0.059660999999999999 0.058840000000000003 0.061872000000000003 0.061067000000000003 0.064054 0.063268000000000005 0.066184999999999994 0.065420000000000006 0.068222000000000005 0.067480999999999999 0.070161000000000001 0.069446999999999995 0.071990999999999999 0.071304999999999993 0.073719999999999994 0.073065000000000005 0.075365000000000001 0.074742000000000003 0.076915999999999998 0.076327000000000006 0.078357999999999997 0.077803999999999998 0.079694000000000001 0.079175999999999996 0.080923999999999996 0.080442 0.082055000000000003 0.081610000000000002 0.083098000000000005 0.08269 0.084069000000000005 0.083698999999999996 0.084973000000000007 0.084640000000000007 0.085782999999999998 0.085485000000000005 0.086491999999999999 0.086231000000000002 0.087112999999999996 0.086887000000000006 0.087640999999999997 0.087448999999999999 0.088070999999999997 0.087912000000000004 0.088394 0.088266999999999998 0.088599999999999998 0.088503999999999999 0.088696999999999998 0.088631000000000001 0.088693999999999995 0.088655999999999999 0.088588 0.088576000000000002 0.088373999999999994 0.088386999999999993 0.088055999999999995 0.088092000000000004 0.087650000000000006 0.087707999999999994 0.087177000000000004 0.087256 0.086627999999999997 0.086726999999999999 0.085971000000000006 0.086087999999999998 0.085181000000000007 0.085314000000000001 0.084268999999999997 0.084416000000000005 0.083310999999999996 0.083470000000000003 0.082328999999999999 0.082500000000000004 0.081314999999999998 0.081495999999999999 0.080243999999999996 0.080434000000000005 0.079029000000000002 0.079224000000000003 0.077636999999999998 0.077831999999999998 0.076257000000000005 0.076452000000000006 0.074901999999999996 0.075093999999999994 0.073567999999999995 0.073757000000000003 0.072246000000000005 0.072429999999999994 0.070929000000000006 0.071108000000000005 0.069447999999999996 0.069617999999999999 0.067818000000000003 0.067974999999999994 0.066227999999999995 0.066370999999999999 0.064673999999999995 0.064801999999999998 0.063150999999999999 0.063263 0.061651999999999998 0.061747000000000003 0.060148 0.060227000000000003 0.058601 0.058659999999999997 0.057010999999999999 0.057049999999999997 0.055393999999999999 0.055411000000000002 0.053721999999999999 0.053714999999999999 0.051963000000000002 0.051930999999999998 0.050111000000000003 0.050049999999999997 0.048189000000000003 0.048099000000000003 0.046267000000000003 0.046146 0.044406000000000001 0.044254000000003173 0.042606000000287615 0.042425000010654385 0.040864000262233323 0.040653003915360975 0.039181044953779491 0.038943343561023476 0.037575055619863934 0.037316488899438505 0.03606276711998458 0.035808527901396749 0.034667928755516379 0.034402547355437262 0.03334871374207269 0.033045860347202784 0.03208391168838428 0.031760710031849465 0.030896455261143142 0.03056004120209721 0.029778202721077288 0.02942993013398076 0.028721413887059174 0.028359527110448798 0.02771348759381401 0.027339042505256036 0.026751424784078884 0.026370984362303698 0.025840794506085393 0.025461035517473401 0.024979106766035673 0.024602656046629104 0.024146377051897205 0.023764495037670863 0.023323172719676228 0.022926485658808768 0.022506508700873225 0.022088793103322655 0.021713097189994705 0.021280428819921749 0.020986669843871885 0.020566474459262237 0.020378054170284744 0.020000668943978357 0.019903863514813165 0.019596437812475824 0.019583667614594565 0.019361763174636254 0.01939393042862737 0.019224697856847526 0.019240599365577551 0.019079332256673708 0.019012085629953216 0.018779925420806184 0.018475742637690414 0.018143687867141545 0.017719839968403116 0.017355029688710714 0.016945050482432659 0.016618408337300952 0.016313046571603904 0.016063639772367126 0.015902943455540833 0.015733513713451733 0.015642659598101426 0.015530297045894667 0.015473035547720764 0.01540100340742304 0.015340000205633534 0.015305000009323616 0.015218000000223763 0.015217000000002772 0.015152000000000001 0.015177 0.015049999999999999 0.015098 0.014796 0.014866000000000001 0.01444 0.014533000000000001 0.014003 0.014125 0.013580000000003718 0.013735000000317519 0.013196000012719289 0.013388000297727822 0.012927004785415664 0.013154053129982576 0.012662436622932365 0.012925601973372084 0.012407676543945183 0.012728018438003067 0.012258628652934752 0.012685357638268743 0.012254223688272959 0.012785925933629615 0.012383472293130101 0.012972514115675321 0.012563984126585274 0.013153077933478285 0.012718680823141437 0.013320563308410492 0.012852868410285049 0.013326721503842349 0.01261259127799522 0.012910008243724628 0.012224031434999319 0.012679853494055798 0.012115729973056925 0.012630399125852109 0.011802606648834339 0.01196386542934582 0.010640828740830144 0.01027546892468603 0.008498229585927811 0.0078822386445151996 0.0062207112767705538 0.005957699176275354 0.0045149558191083699 0.0044715266622842214 0.0032604965666111008 0.0034321380408588163 0.0024776657663298802 0.0029883223341998053 0.0024000919898548795 0.0031827271562833567 0.0027507231911797431 0.0034411968437836086 0.0029113766517289952 0.0035227823795057379 0.0030793084805897644 0.0037960355820252007 0.0034885320957345374 0.0042023144635559995 0.0038817072019750667 0.0045592928795512248 0.0042128141471333641 0.0048912226844206458 0.0045635011389099671 0.0052316413767099675 0.0049277259164674835 0.0055515576851356881 0.0050156562788341158 0.0053604847895649642 0.0041372079107066632 0.0044267739064555913 0.0036628992528771852 0.004565649368061273 0.0038172769468863459 0.0041749301408005642 0.0034344573580964723 0.0041207012539799049 0.0035559854265474109 0.0042566674331214359 0.0035083179096349207 0.0040930263391433814 0.0032005969177225711 0.0036898029652753933 0.0026474719593231198 0.0030183353453531788 0.0018287599351647209 0.0021113778074413744 0.00082588578498549701 0.0010951970502503759 -0.00020301838673597177 0.00011290262397938074 -0.00116428483344531 -0.00079790765658641983 -0.0020671270726269359 -0.0016644721928383464 -0.0029409760460969163 -0.0025087406623270619 -0.0038020579889497339 -0.0033484133691311264 -0.0046817337827329171 -0.0042138107754277196 -0.0056199777298280781 -0.0051387147010863261 -0.0066453767226498338 -0.0061549168557986167 -0.0077954665375494121 -0.0073073323385722993 -0.0091217773276044273 -0.0086400334798403238 -0.01063826845338248 -0.010158829540659359 -0.01218470637172602 -0.011711229403014681 -0.013637575433935191 -0.013192146989374565 -0.015043992468588665 -0.014651840392071853 -0.016449067008678389 -0.016134329859052669 -0.017884218484395902 -0.017655232198620911 -0.019338453663373438 -0.019157997895782198 -0.020683838535786751 -0.020455327105613375 -0.021784903695112424 -0.021456624289777137 -0.022670384790970523 -0.022291517885688311 -0.023480683772421348 -0.023118494805794507 -0.024384565786071739 -0.024071322203265438 -0.025464917906610988 -0.025193899258740528 -0.026697276536301315 -0.026444226886993168 -0.027901892039543578 -0.027630601522003726 -0.028903837383130779 -0.028520498562737528 -0.029495018819595088 -0.028920277290778468 -0.029608302260779238 -0.028909634348557409 -0.029481518383427652 -0.028783504775311889 -0.029323981065246262 -0.028681465240282786 -0.02923547921473723 -0.028676649183184241 -0.029285170522944538 -0.028821893874178252 -0.029517991503942471 -0.02914046079782711 -0.029919154972046912 -0.0295826710609551 -0.030383433651783875 -0.030028619715181171 -0.030788024939566561 -0.030395971128560552 -0.031145057207627953 -0.030775078559617444 -0.031611128132718873 -0.03130209259375781 -0.032226280198528495 -0.031918126073716378 -0.032807479892825453 -0.032447760299845786 -0.033289391800698093 -0.032911885961017191 -0.033769467179041994 -0.033411227413875116 -0.034295693400069514 -0.03394640292051445 -0.034838865302871329 -0.034486775822971029 -0.035384982638085309 -0.035054479465237383 -0.035994118170170612 -0.03566612547003719 -0.036437458774741013 -0.035617944764043764 -0.035927631562644648 -0.035119089171904358 -0.035951119636608742 -0.035716351264746024 -0.036818688699230794 -0.036628280949050331 -0.03774539506766425 -0.03754951831032096 -0.038709762719465052 -0.038529608622051049 -0.03973306495427853 -0.039565119721408339 -0.040805716167088134 -0.040650796262759629 -0.041926637163524266 -0.041786443237117686 -0.04309546128934047 -0.04297359205164062 -0.044324544423782711 -0.044219347037712887 -0.045616994420260841 -0.045524961170606615 -0.04696527855318483 -0.046885119949859166 -0.048349892964672618 -0.048282851421962314 -0.049766259302014663 -0.049719039459391004 -0.051065183425045617 -0.051034297592877531 -0.052216376816547741 -0.052196763138411782 -0.053257913496049872 -0.053238152163252145 -0.054139370118763408 -0.054113089209812698 -0.054875667908880696 -0.054870427679417882 -0.055560344117785723 -0.055570424609125806 -0.056174055896709402 -0.056184005304891614 -0.056702000348007736 -0.056709000015475533 -0.057143000000403732 -0.057145000000004886 -0.057481999999999998 -0.057475999999999999 -0.057709999999999997 -0.057693000000000001 -0.057820000000000003 -0.057790000000000001 -0.057820999999999997 -0.057775 -0.057714000000000001 -0.05765 -0.057496999999999999 -0.057414 -0.057167000000000003 -0.057063000000000003 -0.056698999999999999 -0.056572999999999998 -0.056078000000000003 -0.055929 -0.055337999999999998 -0.055164999999999999 -0.054558000000000002 -0.054359999999999999 -0.053637999999999998 -0.053413000000000002 -0.052562999999999999 -0.052311000000000003 -0.051471999999999997 -0.051192000000000001 -0.050356999999999999 -0.050049000000000003 -0.049140000000000003 -0.048802999999999999 -0.047792000000000001 -0.047425000000000002 -0.046321000000000001 -0.045927000000000003 -0.044625999999999999 -0.044204 -0.042667999999999998 -0.042219 -0.040430000000000001 -0.039956999999999999 -0.037893000000000003 -0.037398000000000001 -0.035468 -0.034953999999999999 -0.033140000000000003 -0.03261 -0.030557999999999998 -0.030016000000000001 -0.027635 -0.027085999999999999 -0.024374 -0.023820000000000001 -0.021146999999999999 -0.020594000000000001 -0.018175 -0.017628000000000001 -0.01545 -0.014914 -0.012964 -0.012442 -0.010704 -0.010201999999999999 -0.0086739999999999994 -0.0081930000000000006 -0.0068739999999999999 -0.0064180000000000001 -0.0052969999999999996 -0.0048669999999999998 -0.0039379999999999997 -0.0035360000000000001 -0.0027889999999999998 -0.0024160000000000002 -0.0018370000000000001 -0.0014909999999999999 -0.0010449999999999999 -0.000727 -0.00038999999999999999 -0.0001 0.00014999999999999999 0.00041199999999999999 0.00058799999999999998 0.00082399999999999997 0.000941 0.0011509999999999999 0.001214 0.0013979999999999999 0.0014059999999999999 0.0015640000000000001 0.0015089999999999999 0.001642 0.001547 0.001655 0.001542 0.0016249999999999999 0.0015089999999999999 0.0015679999999999999 