# crys export
TITLE="FE Surface Data ASCII"
VARIABLES="X", "Y", "Z", "T", "Hw", "Hi", "HTC", "Beta", "TauX", "TauY", "TauZ", "Id"
ZONE T="WALL_2000"
NODES=720
ELEMENTS=720
DATAPACKING=BLOCK
ZONETYPE=FETRIANGLE
VARLOCATION=([4-12]=CELLCENTERED)
1.335811999999999999e+00 1.341537999999999897e+00 1.352765999999999913e+00 1.358300000000000063e+00 1.368363999999999914e+00 1.373706000000000094e+00 1.382717999999999892e+00 1.387866999999999962e+00 1.395928999999999975e+00 1.400886999999999993e+00 1.408090999999999982e+00 1.412857999999999947e+00 1.419286999999999965e+00 1.423864999999999936e+00 1.429596000000000089e+00 1.433985999999999983e+00 1.439086000000000087e+00 1.443289999999999962e+00 1.447824999999999918e+00 1.451843999999999912e+00 1.455870999999999915e+00 1.459708000000000006e+00 1.463281000000000054e+00 1.466938000000000075e+00 1.470104000000000077e+00 1.473584000000000005e+00 1.476386999999999894e+00 1.479694000000000065e+00 1.482175000000000020e+00 1.485311000000000048e+00 1.487505000000000077e+00 1.490474000000000077e+00 1.492415999999999965e+00 1.495222000000000051e+00 1.496939000000000020e+00 1.499586000000000086e+00 1.501108000000000109e+00 1.503598999999999908e+00 1.504947999999999952e+00 1.507289000000000101e+00 1.508486999999999911e+00 1.510682999999999998e+00 1.511749000000000009e+00 1.513803000000000010e+00 1.514753999999999934e+00 1.516672999999999938e+00 1.517524000000000095e+00 1.519312999999999914e+00 1.520075999999999983e+00 1.521740000000000093e+00 1.522426000000000057e+00 1.523970999999999965e+00 1.524591999999999947e+00 1.526022999999999907e+00 1.526585999999999999e+00 1.527908999999999962e+00 1.528421999999999947e+00 1.529643000000000086e+00 1.530111999999999917e+00 1.531236999999999959e+00 1.531666999999999890e+00 1.532702000000000009e+00 1.533098000000000072e+00 1.534048000000000078e+00 1.534413999999999945e+00 1.535284000000000093e+00 1.535625000000000018e+00 1.536421000000000037e+00 1.536737999999999937e+00 1.537465000000000082e+00 1.537760999999999934e+00 1.538423000000000096e+00 1.538701000000000096e+00 1.539304000000000006e+00 1.539565000000000072e+00 1.540111999999999925e+00 1.540357999999999894e+00 1.540853999999999946e+00 1.541085000000000038e+00 1.541535000000000100e+00 1.541752999999999929e+00 1.542159999999999975e+00 1.542364999999999986e+00 1.542732999999999910e+00 1.542926000000000020e+00 1.543258000000000019e+00 1.543438000000000088e+00 1.543736999999999915e+00 1.543900000000000050e+00 1.544167999999999985e+00 1.544303999999999899e+00 1.544545000000000057e+00 1.544632999999999923e+00 1.544850000000000056e+00 1.544872000000000023e+00 1.545069000000000026e+00 1.545026999999999928e+00 1.545209999999999972e+00 1.545090000000000074e+00 1.545266999999999946e+00 1.545055999999999985e+00 1.545234999999999914e+00 1.544926000000000021e+00 1.545115000000000016e+00 1.544710999999999945e+00 1.544915999999999956e+00 1.544426999999999994e+00 1.544653999999999971e+00 1.544065000000000021e+00 1.544316000000000022e+00 1.543639999999999901e+00 1.543919000000000041e+00 1.543166999999999955e+00 1.543476000000000070e+00 1.542648999999999937e+00 1.542991000000000001e+00 1.542081999999999953e+00 1.542459999999999942e+00 1.541462000000000110e+00 1.541879000000000000e+00 1.540783999999999931e+00 1.541244000000000058e+00 1.540043999999999969e+00 1.540550000000000086e+00 1.539234999999999909e+00 1.539790999999999910e+00 1.538351999999999942e+00 1.538963000000000081e+00 1.537388999999999895e+00 1.538059000000000065e+00 1.536337999999999981e+00 1.537072999999999912e+00 1.535193000000000030e+00 1.535995999999999917e+00 1.533943999999999974e+00 1.534820999999999991e+00 1.532583000000000029e+00 1.533538999999999985e+00 1.531101000000000045e+00 1.532140000000000057e+00 1.529485999999999901e+00 1.530613999999999919e+00 1.527727000000000057e+00 1.528948999999999891e+00 1.525811999999999946e+00 1.527133000000000074e+00 1.523727000000000054e+00 1.525152000000000063e+00 1.521457000000000059e+00 1.522990999999999984e+00 1.518985999999999947e+00 1.520634000000000041e+00 1.516297000000000006e+00 1.518062999999999940e+00 1.513370000000000104e+00 1.515258999999999912e+00 1.510183999999999971e+00 1.512199999999999989e+00 1.506718000000000002e+00 1.508864999999999901e+00 1.502944999999999975e+00 1.505225999999999953e+00 1.498839000000000032e+00 1.501257999999999981e+00 1.494369999999999976e+00 1.496930000000000094e+00 1.489506999999999914e+00 1.492210999999999954e+00 1.484213000000000005e+00 1.487063999999999941e+00 1.478450999999999960e+00 1.481451000000000073e+00 1.472178999999999904e+00 1.475330000000000030e+00 1.465351999999999988e+00 1.468655999999999962e+00 1.457920000000000105e+00 1.461378999999999984e+00 1.449829000000000034e+00 1.453443999999999958e+00 1.441021000000000107e+00 1.444792999999999994e+00 1.317380999999999913e+00 1.323301999999999978e+00 1.297344999999999970e+00 1.303460999999999981e+00 1.276777999999999968e+00 1.283082000000000056e+00 1.255613000000000090e+00 1.262100000000000000e+00 1.234974000000000016e+00 1.241630000000000011e+00 1.215322999999999931e+00 1.222134000000000054e+00 1.195521000000000056e+00 1.202476000000000100e+00 1.175591999999999970e+00 1.182679999999999954e+00 1.155634000000000050e+00 1.162843999999999989e+00 1.134976999999999903e+00 1.142300000000000093e+00 1.113823000000000008e+00 1.121247000000000105e+00 1.092553000000000107e+00 1.100068000000000046e+00 1.071209999999999996e+00 1.078802000000000039e+00 1.049927999999999972e+00 1.057584999999999997e+00 1.028593000000000091e+00 1.036300999999999917e+00 1.007006000000000068e+00 1.014753999999999934e+00 9.852950000000000319e-01 9.930689999999999795e-01 9.636439999999999451e-01 9.714310000000000445e-01 9.420290000000000052e-01 9.498170000000000224e-01 9.204499999999999904e-01 9.282249999999999668e-01 8.987800000000000233e-01 9.065290000000000292e-01 8.767939999999999623e-01 8.845030000000000392e-01 8.540889999999999871e-01 8.617460000000000120e-01 8.305270000000000152e-01 8.381170000000000009e-01 8.067480000000000206e-01 8.142570000000000086e-01 7.828330000000000011e-01 7.902500000000000080e-01 7.583940000000000126e-01 7.657040000000000513e-01 7.335420000000000273e-01 7.407310000000000283e-01 7.084160000000000457e-01 7.154719999999999969e-01 6.836309999999999887e-01 6.905430000000000179e-01 6.600599999999999801e-01 6.668209999999999971e-01 6.367979999999999752e-01 6.433990000000000542e-01 6.127869999999999706e-01 6.192149999999999599e-01 5.882209999999999939e-01 5.944620000000000459e-01 5.630659999999999554e-01 5.691060000000000008e-01 5.376840000000000508e-01 5.435119999999999951e-01 5.133259999999999490e-01 5.189390000000000391e-01 4.908899999999999930e-01 4.962889999999999802e-01 4.697319999999999829e-01 4.749160000000000048e-01 4.484850000000000225e-01 4.534449999999999870e-01 4.263290000000000135e-01 4.310519999999999907e-01 4.036339999999999928e-01 4.081099999999999728e-01 3.822329999999999894e-01 3.864639999999999742e-01 3.625630000000000241e-01 3.665550000000000197e-01 3.442490000000000272e-01 3.480059999999999820e-01 3.267729999999999801e-01 3.302970000000000073e-01 3.086999999999999744e-01 3.119830000000000103e-01 2.895220000000000016e-01 2.925519999999999787e-01 2.718269999999999853e-01 2.746120000000000227e-01 2.555689999999999906e-01 2.581180000000000141e-01 2.406290000000000096e-01 2.429510000000000003e-01 2.269049999999999956e-01 2.290109999999999923e-01 2.142969999999999875e-01 2.161959999999999993e-01 2.011719999999999897e-01 2.028600000000000125e-01 1.876120000000000010e-01 1.890840000000000021e-01 1.751600000000000101e-01 1.764280000000000015e-01 1.637250000000000094e-01 1.648000000000000020e-01 1.532290000000000041e-01 1.541220000000000090e-01 1.435950000000000004e-01 1.443180000000000018e-01 1.345919999999999894e-01 1.351549999999999974e-01 1.259429999999999994e-01 1.263539999999999941e-01 1.176380000000000065e-01 1.179039999999999949e-01 1.097220000000000001e-01 1.098520000000000052e-01 1.020569999999999949e-01 1.020579999999999959e-01 9.447999999999999454e-02 9.435899999999999843e-02 8.695400000000000351e-02 8.671800000000000341e-02 7.957699999999999496e-02 7.923099999999999588e-02 7.259300000000000475e-02 7.214600000000000180e-02 6.620099999999999596e-02 6.566399999999902870e-02 6.035299999990926395e-02 5.973699999655099346e-02 5.500699991297040153e-02 5.432199866932643090e-02 5.011998437267084494e-02 4.937487798257460953e-02 4.565025493227801989e-02 4.485186285814665025e-02 4.155392110621185242e-02 4.070378987675787180e-02 3.778964300663430198e-02 3.690016662139693204e-02 3.434206338719193036e-02 3.343272545282397618e-02 3.119183780555036256e-02 3.026464952279991211e-02 2.830418438903545622e-02 2.736485813429220815e-02 2.565828238824659560e-02 2.471330618466805601e-02 2.323680487544379364e-02 2.229274606341857118e-02 2.102302122044460986e-02 2.008823149982722975e-02 1.900175578993806499e-02 1.807839675353992148e-02 1.715205477008365648e-02 1.624262402432953209e-02 1.545998187430626739e-02 1.456967622937592466e-02 1.392260162930518581e-02 1.306276544186941481e-02 1.254495311139121154e-02 1.172981065695587015e-02 1.132312060702679937e-02 1.056146353618483968e-02 1.023629280358132748e-02 9.522817717145200256e-03 9.237902295908801895e-03 8.551639085457878389e-03 8.282718043670362143e-03 7.608295206015834762e-03 7.355472218323342096e-03 6.687193046333830999e-03 6.450618389806861246e-03 5.782637740124897327e-03 5.565330063517773783e-03 4.896958402168548330e-03 4.699130502870667130e-03 4.027160386196369270e-03 3.872652531387012816e-03 3.244691657790127557e-03 3.147508269425162552e-03 2.665502278968391939e-03 2.765412374845280762e-03 2.435632495915132818e-03 2.617931389407702255e-03 2.308370944255039737e-03 2.402177575348919247e-03 2.026307734758062314e-03 2.012858070730635940e-03 1.590712706448737601e-03 1.447209607660584910e-03 1.015882898336812560e-03 7.819884816316509651e-04 3.559990897512719707e-04 3.999995432564377903e-05 -3.750000017667503281e-04 -7.760000000375014660e-04 -1.178000000000433908e-03 -1.678000000000000021e-03 -2.063000000000000164e-03 -2.661999999999999870e-03 -3.027999999999999876e-03 -3.719000000000000083e-03 -4.061000000000000373e-03 -4.856000000000000073e-03 -5.171000000000000249e-03 -6.088999999999999795e-03 -6.374000000000000325e-03 -7.269000000001143470e-03 -7.525000000097360059e-03 -8.344000003844579891e-03 -8.575000088072257109e-03 -9.347001378974673438e-03 -9.553014871324044463e-03 -1.025511847998666730e-02 -1.043768338413845857e-02 -1.107596245927924133e-02 -1.124254131084604681e-02 -1.184281249192096000e-02 -1.200336149086510262e-02 -1.255617790977855801e-02 -1.271013294893774508e-02 -1.322323407992868904e-02 -1.337826243858582405e-02 -1.387523434271689844e-02 -1.404206574682936859e-02 -1.453321586716408743e-02 -1.472037529240013964e-02 -1.520259630914157743e-02 -1.535500929825294077e-02 -1.573896129495636065e-02 -1.582696868089870923e-02 -1.624840789895963186e-02 -1.647503780729650188e-02 -1.705744848798619595e-02 -1.761775298801076042e-02 -1.847569369477356990e-02 -1.938801372998194203e-02 -2.048133017757157795e-02 -2.123065009524965213e-02 -2.161767035315310601e-02 -2.145267294578387385e-02 -2.081584260246160598e-02 -2.006635379808484679e-02 -1.918557304588108803e-02 -1.849522772964303299e-02 -1.770533683800059460e-02 -1.707713728566346081e-02 -1.621505305233335997e-02 -1.563056577548937662e-02 -1.475326299634997611e-02 -1.428652908887659105e-02 -1.350048094082265462e-02 -1.319744517088507728e-02 -1.257114869041693270e-02 -1.233395111384840218e-02 -1.178379951146898454e-02 -1.156840704509354625e-02 -1.104725346900871721e-02 -1.084282867978372117e-02 -1.038146171599243703e-02 -1.021608497342558868e-02 -9.770243708514618139e-03 -9.558840785836143425e-03 -9.282375269073293855e-03 -9.324337467898452872e-03 -9.088289941730696292e-03 -9.350588798727360249e-03 -9.602383501585414621e-03 -1.046518160876250964e-02 -1.111061242555296674e-02 -1.125481361925885666e-02 -1.138129937035416324e-02 -1.125017264305958574e-02 -1.137531190427809764e-02 -1.160386752023001740e-02 -1.176712966690402970e-02 -1.164962243111177832e-02 -1.148225784814774567e-02 -1.128682051999591561e-02 -1.129188409673559379e-02 -1.127161267531772912e-02 -1.139997458299875713e-02 -1.154551411194344561e-02 -1.165191668407895148e-02 -1.180554931706034524e-02 -1.176387496674760960e-02 -1.183357282226565541e-02 -1.162065057189103252e-02 -1.161256457669345050e-02 -1.122568636256670270e-02 -1.117467308968009623e-02 -1.064575043172586062e-02 -1.060778402449370772e-02 -9.980498714146862280e-03 -9.989231290233021102e-03 -9.262048474464363787e-03 -9.316977969979794993e-03 -8.481366868764318029e-03 -8.589111829584172159e-03 -7.648602619342914632e-03 -7.813918157934826234e-03 -6.782914709292918801e-03 -7.005741751615123664e-03 -5.887446936833593512e-03 -6.168298070118792727e-03 -4.978336282545506829e-03 -5.329441214007740214e-03 -4.091430664003986410e-03 -4.521427538097596600e-03 -3.230049759745864772e-03 -3.730427553809890877e-03 -2.455129922049293159e-03 -3.012740171928448771e-03 -1.831695994210076617e-03 -2.445855644902523128e-03 -1.340032288334002623e-03 -2.001210819820530701e-03 -9.184205119465016628e-04 -1.591642618786673477e-03 -4.502589735876190912e-04 -1.103240195062555207e-03 1.519955749285467031e-04 -4.519691830718504128e-04 9.593564265992626100e-04 4.213988715808378500e-04 2.036766506028208669e-03 1.500195748672281462e-03 3.293583812152948292e-03 2.648708542590797865e-03 4.514512386687430379e-03 3.721047946936095838e-03 5.645809134062563031e-03 4.746100593038298648e-03 6.789863153847049831e-03 5.876868537941392322e-03 8.162203979972623702e-03 7.325565835978222438e-03 9.770641079684361588e-03 9.030844606438414787e-03 1.154844408030348234e-02 1.087592456642865434e-02 1.341119830818597244e-02 1.272951044389069968e-02 1.527605991634392937e-02 1.449137427466968588e-02 1.710898354303686322e-02 1.617804299638590446e-02 1.885533849217605612e-02 1.779669670729969524e-02 2.057116986826196606e-02 1.942061550500522385e-02 2.233570475095856059e-02 2.112820441335740151e-02 2.421790386603262651e-02 2.297536805592120118e-02 2.627128641865066408e-02 2.501274144526648147e-02 2.854313567584410016e-02 2.728119125044181983e-02 3.106792629506732739e-02 2.980465100558072136e-02 3.385427159002740022e-02 3.257603254057277187e-02 3.688935986917870474e-02 3.559426898613547718e-02 4.019220647682161113e-02 3.889787348072071965e-02 4.382130371493718479e-02 4.253765315875903535e-02 4.781041249706369928e-02 4.653532094092158178e-02 5.216883023886450393e-02 5.089914987382897910e-02 5.692028936051768406e-02 5.566491190658134913e-02 6.210615696066579261e-02 6.087300229102249327e-02 6.777004459125925140e-02 6.656433881711090739e-02 7.394728888831240965e-02 7.277428586060598337e-02 8.069643625409221588e-02 7.959089833682460313e-02 8.810431173053459575e-02 8.703528825939410574e-02 9.612875731246657562e-02 9.507358808410910911e-02 1.048189328670875303e-01 1.038251710535164629e-01 1.143014608304682295e-01 1.133842525726923567e-01 1.246561518163859378e-01 1.238228834014126895e-01 1.359593850246166302e-01 1.352193628612261833e-01 1.482977213232108127e-01 1.476591529001438363e-01 1.617646313373757028e-01 1.612359097883596382e-01 1.764600307873604168e-01 1.760518255649383690e-01 1.924964081578755259e-01 1.922177025281140983e-01 2.099948775211173679e-01 2.098558991060385237e-01 2.290889149081858644e-01 2.291008311456576574e-01 2.499246848040461988e-01 2.500972438242407558e-01 2.726534565220627426e-01 2.729951528030746255e-01 2.948934524761307463e-01 2.954054503468034887e-01 3.162622216897377214e-01 3.169428255743536593e-01 3.375063414792064398e-01 3.383579670979572906e-01 3.580077998660104455e-01 3.590305975587615439e-01 3.778409415131504523e-01 3.790316621571110378e-01 3.979849216488106634e-01 3.993489868342494087e-01 4.185289984016548059e-01 4.200699998612718034e-01 4.398329999917579558e-01 4.415569999996721839e-01 4.620139999999924307e-01 4.639269999999999783e-01 4.844149999999999845e-01 4.865169999999999773e-01 5.062910000000000466e-01 5.085809999999999498e-01 5.268049999999999677e-01 5.292769999999999975e-01 5.460880000000000178e-01 5.487340000000000551e-01 5.650699999999999612e-01 5.678879999999999484e-01 5.843739999999999490e-01 5.873660000000000547e-01 6.040450000000000541e-01 6.072119999999999740e-01 6.251330000000000497e-01 6.284790000000000099e-01 6.481280000000000374e-01 6.516589999999999883e-01 6.718880000000000408e-01 6.756039999999999823e-01 6.936539999999999928e-01 6.975419999999999954e-01 7.161239999999999828e-01 7.201800000000000423e-01 7.397930000000000339e-01 7.440170000000000394e-01 7.616089999999999804e-01 7.659869999999999735e-01 7.818119999999999514e-01 7.863310000000000022e-01 8.019060000000000077e-01 8.065590000000000259e-01 8.223840000000000039e-01 8.271650000000000391e-01 8.430619999999999781e-01 8.479649999999999688e-01 8.652689999999999548e-01 8.702900000000000080e-01 8.894750000000000156e-01 8.946119999999999628e-01 9.158429999999999627e-01 9.210909999999999931e-01 9.445230000000000015e-01 9.498769999999999714e-01 9.708290000000000530e-01 9.762729999999999464e-01 9.949390000000000178e-01 1.000456000000000012e+00 1.020450000000000079e+00 1.026032999999999973e+00 1.048251999999999962e+00 1.053892999999999969e+00 1.078530999999999906e+00 1.084219000000000044e+00 1.108141999999999960e+00 1.113865000000000105e+00 1.135307999999999984e+00 1.141051000000000037e+00 1.160225999999999980e+00 1.165977000000000041e+00 1.183095000000000008e+00 1.188841999999999954e+00 1.204078999999999899e+00 1.209807999999999995e+00 1.223343999999999987e+00 1.229046000000000083e+00 1.241028000000000020e+00 1.246690000000000076e+00 1.257270000000000110e+00 1.262883999999999896e+00 1.272183000000000064e+00 1.277738000000000040e+00 1.285886000000000084e+00 1.291374000000000022e+00 1.298470999999999931e+00 1.303882999999999903e+00 1.310300999999999938e+00 1.315628000000000020e+00 1.321657000000000082e+00 1.326889999999999903e+00 1.332862999999999909e+00 1.337992000000000070e+00 1.344217999999999913e+00 1.349232999999999905e+00 1.356276999999999955e+00 1.361162999999999901e+00 1.369421999999999917e+00 1.374162000000000106e+00 1.383736999999999995e+00 1.388316000000000106e+00 1.397226000000000079e+00 1.401642999999999972e+00 1.409612000000000087e+00 1.413866000000000067e+00 1.420984999999999943e+00 1.425078000000000067e+00 1.431429000000000062e+00 1.435361000000000109e+00 