#
TITLE=""
VARIABLES="X", "Y", "Z", "T", "Hw", "Hi", "HTC", "Beta", "TauX", "TauY", "TauZ", "Id"
ZONE T="ZONE 1"
NODES=2503
ELEMENTS=4992
DATAPACKING=BLOCK
ZONETYPE=FETRIANGLE
VARLOCATION=([4-12]=CELLCENTERED)
-4.773510427774473736e-03 -8.722258331184105928e-02 -2.796743468295444929e-02 -2.901112121309323832e-02 -2.747019852325408712e-02 2.262441958200385461e-02 7.010777603230713799e-03 -2.292118911747061637e-03 -2.673931990211396437e-02 -8.989560213359792940e-02 -5.103841817415756543e-02 -5.075277138655461678e-02 -8.811056710860684649e-02 -7.088291229900202384e-02 1.454093714438044020e-02 -3.371474024595813579e-02 7.681663610538432344e-03 -6.100922457116828707e-02 -3.965526842856353928e-02 -2.795150487318209115e-02 -4.940452300087389698e-02 -1.207141265793549613e-02 -6.184846693501617337e-02 -5.198733059397871170e-02 -4.630540767933823826e-02 -3.690719094774178727e-02 6.489856867489966806e-04 7.955757996704683130e-03 -4.764458552887837484e-02 -5.959998872056619657e-02 -3.314240912386683113e-02 -3.189612036566515096e-02 -1.992096331633869469e-02 -2.896889330264901599e-02 -5.857505597708190931e-02 4.577946970810811700e-02 -4.710341450337345026e-02 -4.045128549055502371e-02 -4.092972852669628930e-02 -2.245647251180420481e-02 -3.478052413521917369e-03 1.413056852358169496e-03 4.549610821193575405e-02 -2.304696764937349748e-02 -1.208951028068915544e-02 -9.078838630636288515e-03 7.802468025603433339e-03 1.498916520050763528e-02 -3.495932005975591755e-02 -7.568854966295156250e-02 3.258764684737996270e-02 -4.972755608674538780e-02 -4.702306720479179636e-02 -3.419261627511077650e-02 -3.041035268231987235e-02 -2.153304244079286972e-02 -1.291854004935215523e-02 -1.707278161550088158e-02 -2.047658214526284267e-03 3.415531998860536680e-03 -2.090607745882843913e-02 -1.794089942783765046e-02 -1.112138838097648762e-02 -4.813409476498307221e-03 -5.202396910191090657e-02 3.097949951004672423e-02 -1.006159944069491691e-01 -3.833416629873016845e-02 -5.310837740128660639e-02 -3.232226728736109500e-02 -2.075375272343368827e-02 -1.938746226176896528e-02 2.648167123273527553e-03 4.816621686549099786e-03 1.239131899348025999e-02 -6.756108933841538378e-02 3.266399809192836734e-02 3.538700382208300604e-02 2.855548111172671877e-02 -8.841558567198576357e-02 -9.796959814878296313e-02 -4.570883646893536545e-02 -4.573752910719056791e-02 -5.528261990475290266e-02 -4.632454781968196184e-02 -3.603726201798278933e-02 -2.255444782101161810e-02 -2.326365353543827924e-02 -2.268096066945692046e-02 -1.365913641743947242e-02 -6.452035981261092408e-03 1.114808389823239779e-02 4.987971258366439425e-02 -8.133860610203294539e-02 -8.387241150879498619e-02 -5.000509810514996989e-02 -6.093733610600705203e-02 -2.712116995294330812e-02 -6.530287902635685537e-02 -3.206582270964147136e-02 -4.427173107280339692e-02 -2.550138667375359547e-02 -2.982261557188501527e-02 -3.241992213439664344e-02 -1.032312643979676597e-05 -8.572637630908591655e-02 -2.685395635864758213e-02 2.950743861294434153e-02 4.447337480929675763e-02 -6.225443588120497390e-02 -5.203422105038655460e-02 -3.634190149063689507e-02 -9.230260670945797385e-02 -4.481571706625926341e-03 -3.316948479661254411e-03 7.290436033379863075e-03 3.713397825001789007e-04 4.506039494068234119e-02 3.707102326309696244e-02 -2.747023475789756725e-02 -1.094039043743356802e-02 -9.535403713685113632e-04 -1.026015781414086336e-01 3.463205844806585554e-02 4.571448549706194631e-02 2.630090980499663611e-02 -1.763727275359359276e-02 -1.741633078947407015e-02 4.462356963568146935e-03 -1.587554379874384775e-02 1.891015356153065777e-02 -7.970388268213045302e-02 -3.152592229487644060e-02 -2.500673297622059074e-03 -3.658140844957630949e-02 -2.110975595382520026e-02 -1.740257429303876044e-02 -6.773238629017903911e-02 -5.315746874466731331e-03 -3.411229709643290309e-03 -7.978391335672548393e-03 3.496912968748209366e-02 5.002172949081458431e-02 5.412469694368365197e-02 -3.796508413756059103e-02 -2.848131301873797760e-02 -1.895033743976962115e-02 3.623565476180195567e-03 -1.773262852432358136e-02 2.390040680769113177e-02 -2.873011306716754740e-02 -9.850717021020979382e-04 -5.522539022622830612e-02 -5.319054720640518930e-02 -5.830280898615294166e-02 -4.412440545397319086e-02 -2.181458326673271081e-02 -1.555985353292387192e-02 1.101228538558803732e-02 5.666722643702903905e-02 4.636819803106034116e-02 4.289965034572550129e-02 4.965154736826622728e-02 -9.312119209736903491e-02 -5.498684607576513617e-02 -7.367081601586002518e-03 1.302307864170041025e-03 -2.536931942410761143e-02 5.078425651460951283e-03 -5.283200560544419611e-02 -2.373814512833541737e-02 -1.675405552877529125e-02 -1.451265255563302138e-02 1.660942008771552599e-03 -3.625376692538185425e-02 -7.814508844832937506e-02 3.811722706535432270e-02 5.633646975924164885e-02 2.285342939416649261e-02 -4.314793293164229798e-02 2.082119796213373689e-02 -8.593634747928893813e-02 -3.454535233384658371e-02 -1.628047140462683326e-02 8.028934781034504156e-03 1.111821394628160001e-02 4.745662196953650755e-03 9.911571284544080235e-03 3.929796456992622894e-02 5.694499044896083467e-02 -5.871864488078572947e-02 -5.909438179691607444e-03 -3.070610358890731376e-02 -2.421326794993704234e-02 -2.317528954863980195e-02 -6.303838683141108762e-03 2.031739617904993953e-02 -1.038962641899259104e-01 4.047750776534238260e-02 6.018744376636993298e-02 -4.989758316540793270e-02 -5.998431742833622120e-03 -7.714708855185589687e-02 -7.292034038697363385e-02 5.061110134146636769e-02 -6.358408733388122569e-02 3.459343078669950555e-02 -1.381401350878180834e-02 -4.410756733965456866e-02 -3.753508757956226100e-02 -3.029318298318655137e-02 -4.631805293754889113e-02 -1.674092900370818468e-02 -9.013044726627133033e-03 -1.965620074536573916e-03 -3.307730436576362260e-02 -2.064386158011562861e-02 -8.672027339748344943e-02 -8.129139690599304635e-02 -1.089087642621634489e-01 -3.186095776962916126e-02 -4.697764847016804024e-02 -2.554032787682229341e-02 -1.077771222021182453e-02 4.031551572658171288e-03 6.741635122829629442e-03 -8.063775433515912860e-02 5.382385476522516532e-02 4.950567209424022730e-02 -5.518299602341083382e-02 -4.541718777197595314e-02 -6.828980407197961233e-02 -1.278002852371365114e-02 -3.410808094453328387e-03 1.883973448814936849e-02 -8.076745404823552910e-02 -7.082542065708570533e-02 -3.000105052678474563e-02 -3.579271979698711581e-02 -8.308804064281098689e-02 -3.369300731073389399e-02 -2.055177853761117404e-02 -1.340643313480387178e-02 2.882731043301992990e-03 6.341213818528329375e-03 8.235681956278021951e-03 -4.707865810602835516e-02 -6.907770533419829717e-02 2.141357425807537129e-02 -1.441848299974490648e-02 -6.132475450710915543e-02 -5.306416672781198024e-02 -4.904585357949176744e-02 -4.814130277758164184e-02 -4.806839843632329523e-02 -3.954012267194682850e-02 -1.599735552681496795e-02 -1.764674945207073131e-02 -5.897279054226085490e-03 4.959691638312520301e-02 1.790493062490301551e-03 -1.077379698591702656e-01 -6.797255221578836493e-02 -4.234741076432414764e-02 -3.182795446285530822e-02 -2.626252753485272540e-02 -3.497706856486128973e-02 -6.886934485083801624e-04 1.322657623184816771e-02 -1.585570814514283139e-02 -8.237282025911200900e-02 -1.976026987816741423e-02 -8.918586792939235675e-02 -4.088593057952035620e-02 2.677777953656151552e-03 1.020946542246195000e-02 -6.353292934406297443e-02 -6.252789550069126623e-02 -5.704577518353810134e-02 -5.379021989591489111e-02 -4.727125914051540090e-02 -4.534400972084356302e-02 -4.255131147424197346e-02 -8.915518383106331435e-02 -1.004348954652328069e-01 -3.056273411562863973e-02 -1.588204613346530861e-02 -1.352814035731348015e-02 -8.965769997309464348e-03 -1.734001047504401660e-03 -7.637542796723699456e-02 -7.676733380537419105e-02 -5.883608025616396398e-02 -3.713201631896051458e-02 9.200586632326977852e-06 -6.893924171130037803e-02 -5.949809254349131687e-02 -3.914716216399345694e-02 -2.684489350393482951e-02 -3.818494128457872172e-02 -1.031401975990146602e-01 -2.294960562413797533e-02 -9.347978932787334716e-02 -6.619741950336885394e-02 -4.092885018564502292e-02 -6.758115068234996081e-02 5.970209511181411716e-02 -5.467039758791033405e-02 -4.579081615786712023e-02 -3.338702720759043063e-02 -1.123604460887980827e-02 -3.684181372238305632e-03 -4.680184694743304286e-02 -4.703739366610291267e-02 -5.644847234766326577e-02 -2.899627891980906258e-02 2.544701409362255112e-02 -5.945080036494949233e-02 -5.678256688234004090e-02 3.800536918267075851e-03 -1.862050206769540195e-02 -8.151389891728352821e-03 5.572137067763945073e-03 -2.917489680180398309e-02 -8.422857469875447145e-02 2.283581022005597844e-02 -4.078672162745405200e-02 6.860151935270361254e-03 -9.991197842060897671e-02 -4.979315515975311218e-02 -3.825762018600316339e-02 -4.140130537791037596e-02 -3.204729191376230746e-02 -2.851076089061437696e-02 -5.815049048071904182e-03 -6.278643841810302439e-03 3.041507244768443404e-04 1.327584372071472993e-02 5.272868230286256036e-02 -9.351406740840044474e-02 -1.043797285642778100e-01 -5.887730335844079677e-02 -5.230915843232392115e-02 -3.805755570582822905e-02 -1.461305982092754932e-02 3.097685504428793896e-02 -3.340556037247060378e-02 -7.490497061679349255e-02 -7.045777018958679361e-02 -5.911193655516927548e-02 -3.442775236237425457e-02 -3.012105621612784848e-02 -2.631489066455000234e-02 -1.233195082107440242e-02 5.215089745919811171e-02 3.820938349619626417e-02 -6.367894524316936034e-02 -6.529785622144229640e-02 4.085243686065035545e-02 -1.869794147798070280e-02 -5.059369511746126570e-03 8.159677150860860859e-03 -7.310093934344255584e-02 -5.376396438410444706e-02 -5.205345671218256087e-02 -4.564416897197447892e-02 -4.082432044422783235e-02 -4.018881614250484346e-02 -4.390213305011674699e-02 -3.748537752367488846e-02 2.243880116353895449e-03 1.321492637591771893e-02 2.493385085751634658e-02 3.662753084348707201e-03 -7.421385843683597772e-02 -5.714025286556955602e-02 -7.328172003176709748e-02 -6.145208850909613524e-02 -2.563814741887245063e-02 -2.879138845795014764e-02 -1.811499397547253198e-02 -1.010434379856303688e-02 7.810488819641415916e-05 7.602842505790546879e-03 -5.737180362122423771e-03 -8.118365638853933253e-02 1.449519317304900218e-02 -5.586438376883906543e-02 -4.041189941880077990e-02 -2.653030343382475550e-02 1.401252537422597103e-02 -6.679955501149270093e-03 2.060605292163810581e-02 -7.022605252677370513e-02 -5.470267851057247083e-02 -4.702936270531832968e-02 -4.890288862672381026e-02 -1.087151801928967626e-01 1.661643682125637372e-02 2.378378740809763969e-02 8.631310819333024714e-03 -1.665977531327708649e-02 -2.560554082039162918e-02 -6.527621980597494988e-02 -6.760902056737043420e-02 -5.147541639798560581e-02 -3.993150803422666067e-02 -4.130480834539303203e-02 -3.937278441943250357e-02 -3.041733434803649619e-02 -2.779517381011663638e-02 -2.824800827799904893e-02 -8.589113557461472426e-02 7.972620818157577852e-03 7.270231610249118862e-03 1.541596597439958381e-02 9.732095398717510032e-03 2.117940362778606648e-03 -7.478340388649726278e-02 -7.620323927339790922e-03 -2.878594378569653001e-02 -4.683148466774523372e-02 -3.984212768481169842e-02 -3.676919913970602694e-02 -2.372553655810852660e-02 -2.166166592415519343e-02 -1.629437757500781445e-02 -7.860986132409110427e-02 -7.404544363100876159e-02 -6.862037937169451762e-02 -8.283699493389869162e-02 -5.378291624414244243e-02 -8.352927324557857247e-02 -8.185213278957406691e-02 -7.643467788971861077e-02 -6.014288417881333976e-02 -4.945035647478351892e-02 -3.135212960078804373e-02 -1.679357167418260924e-02 2.261757955463897761e-03 -4.914160750596226201e-02 -1.727647354205830155e-02 5.746225934792450682e-03 1.985894200692977715e-02 -2.988493651197013726e-02 -7.735636491694666828e-02 -6.801796006134498696e-02 -6.294366222917480158e-02 -5.532800166248241780e-02 -4.152389830427853645e-02 -1.794839453165829671e-02 -9.287275283822685190e-03 -1.207367191997218460e-02 5.548051171591258587e-03 3.994438773029492656e-02 -4.994155851205881597e-02 -3.685247882728288210e-02 -2.926842386208414193e-02 -1.749301509446624103e-02 -1.728191422033610938e-02 -4.443954723302857672e-03 3.622062879905354853e-03 1.147826976951094209e-02 1.491185199841889124e-02 3.544958002253720264e-02 -3.949716393189704050e-02 -2.412610709483564708e-02 -1.454407624328648597e-02 1.002778199969127891e-02 7.477045870902186177e-03 -5.530342887822601444e-02 -5.599123325816315194e-02 1.825590836320044319e-02 -7.229021227616100331e-02 -7.290459240064300905e-02 -6.487791904631258488e-02 -5.175345644869733253e-02 -1.115642393042048756e-02 4.275809204863901224e-03 1.373681828994740076e-02 2.474092818948393779e-02 -3.628932638947836666e-04 -5.542279957577441601e-02 -4.588407841460639958e-02 -3.868962159547872925e-02 -3.510819263644449073e-02 -3.212376231465844528e-02 -1.323157337015944644e-02 -3.100814155551454704e-02 -9.102707764011766511e-02 -5.341976167996184688e-02 -3.760949356742473298e-02 -6.022705946945043631e-02 -4.075681910638333932e-02 -2.907032180616892642e-02 -2.504181222775193547e-02 -8.666005954166408273e-03 6.927742939939448077e-03 -4.890881532226831058e-02 -5.798251560628727569e-02 -5.230895475576220061e-02 -8.250751468354618201e-02 -7.550164489180692662e-02 -2.425880464394370231e-02 -6.114934520894104580e-02 2.243377225906155112e-02 -4.596002148373976026e-02 -7.443483838494867333e-02 3.458355754836805324e-02 -2.211402132705619222e-02 -2.792063060320885449e-03 1.642027134102357760e-02 2.625873334218060615e-02 -5.536271479316330624e-02 -4.636048185259818155e-02 -3.610927475982511625e-02 -3.165443389531329837e-02 2.527216456857036674e-03 -2.561180774972998328e-02 5.458909601808914838e-03 -4.506033324613561986e-02 -5.942495206172210276e-02 -4.822714081484395787e-02 -3.948805969168710239e-02 -2.790667212909313591e-02 -2.075538115065256664e-02 -1.326020865583678147e-02 -1.555809320237982324e-02 3.013667041597439464e-02 1.495023014877106676e-02 3.135091251251218014e-02 -6.751521629205813058e-02 2.538587102065198442e-02 -3.742750762529120645e-02 -1.027196551972419866e-02 -4.940797696767270514e-02 -4.375648271841096892e-02 3.174622895666472794e-02 3.844957444020485199e-02 -4.515277808590459352e-02 1.021057093273786652e-02 1.575935512355304893e-02 -6.918366888542193394e-02 -3.683424190701929668e-02 -9.441322477746862118e-02 -5.605972660270943514e-02 -1.027458005674609758e-02 2.335243699113058805e-02 3.314133156681698528e-02 3.843937541907634092e-02 -3.920543749086340124e-02 2.987146231750753902e-02 2.547157949968677226e-02 4.896169005604088242e-02 5.604813357834366461e-02 6.218035360516129678e-02 -5.131940391738248203e-02 -1.906365260023705141e-02 -2.675819447623604269e-02 1.525429498083399893e-02 1.988043238266680793e-02 3.656067310095841016e-02 -5.352310943808050864e-02 -3.353916885452694341e-02 -3.454425501180239527e-02 -1.492034617360162366e-02 -1.579412914879678442e-02 -3.715542538643240578e-02 3.344560411983252962e-02 5.475852355002193417e-02 6.088641026520408978e-02 -5.900193876832683648e-02 -6.315516201772160797e-03 -5.128009213277383294e-02 -3.337601750086886809e-02 -3.102161880078179237e-02 5.486859151788904543e-02 2.055049159982919038e-02 2.543394553345750680e-02 3.004218032676291700e-02 4.133621966561614597e-02 6.753625910598970439e-02 -3.251313216234218151e-02 -3.656945288643423386e-02 -3.782285833717356771e-02 2.567157615965726114e-02 3.069415945079416105e-02 4.036932548830176465e-02 5.157087316530082483e-02 6.122067782452846052e-02 -2.742365894581516930e-02 -6.290714621927931405e-02 -4.367419998843539986e-02 5.931918498091590802e-02 -3.825653374864700085e-02 -6.170377661889547838e-02 -6.724627026516581674e-02 -8.502749754323706347e-03 1.817960565939074485e-02 -5.107241859288497859e-02 7.260611740761921395e-02 5.764853407830540510e-02 -1.944515955756708631e-02 2.137937339144672239e-02 3.270829789360214096e-02 3.710651198403968481e-02 -3.739191604179230993e-02 5.393260252968189172e-02 2.237419572765232331e-02 4.341947340983420139e-02 4.686426387105597363e-02 -5.169897703309720566e-02 -5.383860271364521166e-02 5.676144317672443540e-02 6.842817293533180745e-02 -4.018795462619265818e-02 -6.064766799533918840e-02 2.466285665231299912e-02 3.546421539418879998e-02 7.010137098830271363e-02 -4.834506050854168319e-02 2.988528474304440880e-02 -5.617245057053420892e-02 1.092878201364886823e-02 1.615987555320036462e-02 3.172573364206244390e-02 4.166216630602394971e-02 -5.258030645964981847e-02 -5.353226670896309158e-02 6.453097289057850572e-02 -2.223296273873492587e-02 -3.992826369331930331e-02 -4.978757425171511514e-02 -5.801038425424617784e-02 1.649375075114132422e-02 2.182682898124755841e-02 3.829221735550596833e-02 4.965403670702880218e-02 6.188481307568085427e-02 7.270077183546658217e-02 -1.333347505313393043e-02 -4.958365963607565437e-03 5.230589142023003846e-02 -7.752017902006578740e-03 2.951520486436431598e-02 4.605071075159574562e-02 -6.152199629367776507e-02 6.799963136285730458e-02 -3.060598844449410189e-02 1.703918443193141313e-02 2.049420544681315737e-02 2.724129495276301702e-02 4.655363851498627720e-02 5.289673477715564620e-02 -5.500695473881012793e-02 -4.048795860405398489e-02 4.354766691541379908e-02 3.172695400055633441e-02 3.134465307585689725e-02 4.218628685693381897e-02 4.514853106152515866e-02 6.260919681831170203e-02 -8.119288869336846112e-03 -8.662541707985273870e-03 5.391492953780555042e-02 3.344876453375811992e-02 5.028561861318716492e-02 1.294072858539122364e-02 7.073643208007403260e-02 5.027147145353594304e-02 4.402332969058655315e-02 -2.541598279412660144e-02 -4.975285394305649367e-02 -5.755181739177792771e-02 -6.129556432000725363e-02 2.396846878620939245e-02 3.667622032435435830e-02 4.675305895241773507e-02 6.595595257319043780e-02 -5.266131121745513954e-02 1.496145856626827052e-02 1.791641117945464226e-02 3.697024651533179634e-02 4.738773543249556741e-02 5.260504857982822857e-02 -5.856011259134553254e-02 -8.240072903196607110e-03 -1.037611492629329502e-01 2.553110365601001224e-03 -5.697129303989342114e-02 -5.235839250332198491e-02 2.921328880619207882e-02 3.340618746114016463e-02 4.204015774356411467e-02 5.272597617734137848e-02 -4.647954338578377809e-02 -3.272761929049553681e-02 -8.026636205375047017e-03 1.666254608800859377e-04 -3.053811492427330188e-02 3.289540517401182140e-02 -5.688624394766712833e-02 3.550502809621707695e-02 2.139890869391488509e-02 3.698970736202754350e-02 5.836753225641039960e-02 -8.790034374305871756e-02 -3.865033595854502207e-02 -3.796943818636105972e-02 -1.429388180399295688e-02 2.376293768673708173e-02 3.168177499360601279e-02 4.606988182313747487e-02 -9.878503100718080687e-02 -4.320217901991475762e-02 -2.968328174465763303e-02 -9.735241071778377719e-02 -5.515880271758716313e-02 1.905714363980272677e-02 2.484743260814545329e-02 5.539940968802160859e-02 -4.020810211853195065e-02 3.761330331543448480e-02 -4.397063355476188429e-02 3.563412941963742947e-02 3.977010540501446645e-02 5.049124525258571333e-02 5.504691131948461630e-02 -3.471925827653443708e-02 -1.313667189017611158e-03 -2.663643929137686148e-02 -4.022601794543263776e-02 -3.928121744871738985e-02 5.371061056621943830e-02 -5.731511230422196845e-02 -5.704203654632709203e-02 -3.826928061949020493e-02 -3.660166203613691299e-02 -6.430978233083908813e-02 1.416287007591458119e-02 2.386509605014590016e-02 2.907804282041072733e-02 3.446263856978669382e-02 4.022670141122685478e-02 -5.406376336085104428e-02 -4.802862529529450253e-02 2.620001851480527680e-02 -5.206064195123356192e-02 1.847200186012607631e-02 3.822939128181370577e-02 5.853031306399787692e-02 6.021685909815173432e-02 -3.848887995185461958e-02 -2.094524545528915829e-02 -5.175987134873369366e-02 5.069255505174374843e-02 -4.496703163665653064e-02 1.951000797030700423e-02 -1.609570807369235801e-02 2.526578337229912555e-02 -4.836930417168987251e-02 2.329506017029062126e-02 -5.016922858887499365e-02 -1.169448701923730440e-02 3.643081297969889831e-02 5.506351414293144536e-02 3.211800920159131600e-02 2.519235811428485045e-02 3.908380219401839939e-02 4.219279272132504810e-02 4.795123041392483632e-02 -8.451017590733826690e-02 3.696279155669085492e-02 -4.144782604923845371e-02 -5.061131283104525896e-02 -5.415758202630530788e-02 4.419377255035301238e-02 5.077163458694224085e-02 -4.889933791577521366e-02 -1.520254256047115157e-02 5.781532710431896288e-02 5.176396446180999561e-02 1.781917883677288511e-02 3.190323431975996410e-02 4.815363368736101657e-02 -4.094268582719462479e-02 -3.091508372752934178e-02 1.221252207653299865e-02 2.442324924751457932e-02 4.555873184729900688e-02 4.759578711093852277e-02 5.427064715784277876e-02 3.036353507125482895e-02 -1.732957064135335137e-02 -2.394650850307523081e-03 -2.160274510700566433e-02 -4.581253556422663908e-02 1.975054379073465372e-02 3.408578969171792428e-02 4.161066237535976375e-02 -1.685872374437085222e-02 -1.062337806362027293e-01 -7.766507636049420349e-02 -1.070785996114574506e-01 -9.156749931994306868e-02 -1.075616829518158124e-01 3.787910566156331427e-02 4.644052943310305465e-02 2.374426047375671062e-02 5.110077817305767878e-02 -5.144359780700289569e-02 -5.999250265706772972e-02 -9.208353288712984794e-03 1.730282816544122595e-02 -4.457674645792358142e-02 3.868472932229308908e-02 -1.015638441575890394e-01 -4.913344170979166287e-02 -4.706696687004127688e-02 4.149792566474292538e-02 -8.889168695115363950e-02 2.758250982138059013e-02 2.557096622281949255e-02 5.858848548064060635e-02 4.403235052621744250e-02 2.803111310250368596e-02 3.159084281934027016e-02 3.446093109601499477e-02 5.473788247009601926e-02 3.032909182210697524e-02 2.492711743373439079e-02 -1.005235124580226291e-01 -1.005374647973248103e-01 -4.987746695322927554e-02 1.452185699623823436e-03 -4.821357460547252144e-02 -4.412204909472212250e-02 5.025531178300837037e-02 5.016829928430568963e-02 3.359492310208472832e-02 4.380037918291733706e-04 -4.851645663840592482e-02 3.368348502653412124e-03 5.492905332250650613e-02 -7.887529038877554022e-02 5.794569877164797156e-02 6.319962412511098693e-02 3.386098648158715474e-02 2.933153252000340189e-02 -2.676826465834783106e-02 5.687985817536236194e-02 4.089907919968092248e-02 -5.952767809349601529e-03 -3.576730165813049589e-02 -2.801395238939478807e-03 6.279139239138456507e-02 6.059878814971624700e-02 3.032516458115030317e-02 3.452024798740507827e-02 3.092185856555542886e-02 -2.315630246506088924e-02 -4.014295298993365152e-02 6.414581016312691231e-02 6.885632942216683705e-02 5.272038576840083063e-02 -8.689028801619948228e-02 3.756801121400667187e-02 3.925309505879162608e-02 3.585761035095844096e-02 3.098987438290416729e-02 2.571083787153129532e-02 -1.635964458968344401e-02 -4.881769534125333238e-02 -4.996399299358583040e-02 6.047101589433894614e-02 -4.129102659652078566e-02 -8.697122939181518853e-02 -4.155559653731798198e-02 -5.214109096696349643e-02 -3.937036826138243240e-02 -4.967586877358910052e-02 6.815449743809821881e-02 6.674008873909703654e-02 5.857910135652314582e-02 -4.894373894030751987e-02 6.815401018795712307e-02 6.944033676323572990e-02 6.285694243717478147e-02 -4.272371617236990493e-02 4.181376618863436034e-02 -7.966250184608467122e-02 7.251100451120273682e-02 -2.787594869249767141e-02 -3.989997308636130530e-02 7.151390166364271495e-02 7.411130591938219769e-02 6.565287691831266093e-02 3.677460143068598392e-02 3.899489315992319023e-03 -8.762747201638457217e-02 -4.891218362233588912e-02 4.204303480624654865e-02 4.410386868843210739e-02 4.178064658111339119e-02 7.307755744124816433e-02 7.036372340502777822e-02 3.838220812225401346e-02 -1.975412232306881025e-02 -9.067483878893736748e-02 7.523748215939146666e-02 7.313038119629955425e-02 6.914023451504792972e-02 4.908053088858587570e-02 4.069145543311322027e-02 -2.837287722499375400e-02 -1.008701860781154730e-01 7.541143426120264226e-02 4.717031038697438311e-02 3.413792993432845924e-02 -4.723930116927996248e-02 -9.891567106841316070e-02 -9.015187260090815058e-02 7.328507999427609498e-02 4.079950399307313152e-02 -1.078986862414043485e-01 -1.077587507718764243e-01 4.626732352151739780e-03 -9.349179954722346142e-02 -2.967588443289956995e-02 7.422736255469472577e-02 7.386988235803328140e-02 5.345458396984031912e-02 4.591026583752032264e-02 -4.773866146981482761e-02 -8.725350820007547747e-02 5.030613986639322077e-02 4.140809962207657458e-02 -9.519786087586876167e-02 -9.584461726740008125e-02 -7.653966179549985538e-02 -9.574334974848136559e-02 7.538920663323123161e-02 5.252676558066692730e-02 4.596019096504472962e-02 -1.059116016765404983e-01 -4.796063142646141836e-02 -7.635682925613786198e-02 -4.021990808100465997e-02 -3.803996423666032578e-02 7.316755964494345288e-02 -4.692724106778543153e-02 3.514914297520306541e-02 -8.312341326860490931e-02 -6.621395458088016883e-02 -7.050988320097981155e-02 6.878221571117325295e-02 -3.036646901503105983e-02 3.900966619828490078e-02 -3.983798110767963752e-02 -8.465956840214290680e-02 -4.256432293690748034e-03 -1.028275948136769535e-01 -4.782062182953310259e-02 5.723415024740009099e-02 -3.477402011804689441e-02 -9.831502103228284550e-02 -7.911406848509892897e-02 4.860295795261414947e-02 3.603746145378061011e-02 -4.734189826695792830e-02 -1.053199075047020900e-01 -7.863661900911980696e-02 -4.783443456539029914e-02 3.424825866793008294e-03 5.613104700461698376e-02 5.541863829385241386e-02 4.466186781734399203e-02 3.995248452285133506e-02 -2.207316603100373253e-02 -9.673840293639070220e-02 -4.151139616427629297e-02 5.852206983895930775e-02 5.695316161851029374e-02 1.986111789654841295e-02 -7.231140162429385010e-02 -1.042467952632232242e-01 5.510729499532916742e-02 -1.071504653948025659e-01 5.926805113407761921e-02 -2.297451980285422548e-03 6.016778737917878594e-02 6.023660113805099497e-02 5.268106736543410468e-02 5.720825140868674580e-02 -4.039885483673019695e-02 5.903422407613232586e-02 5.711057636193347942e-02 5.382916681587057023e-02 -9.932768548156949151e-02 5.289145893844179186e-02 4.724458329373355109e-02 -1.072624849471952302e-01 -4.748304218730781123e-02 5.918809886237651890e-02 4.966100347061277315e-02 4.425235466530819811e-02 -1.052933792455131717e-01 -8.377089274051424672e-02 -4.709074640773235759e-02 -4.596795840458758192e-02 5.414687432247889537e-02 -8.140660045588223037e-02 -1.011715492788332754e-01 5.681058667594367922e-02 -8.099518631034464955e-02 -8.829092777909461343e-02 -9.856468008682620074e-02 -7.958998525602017926e-02 5.849192446712943305e-02 5.534172648485680135e-02 4.702202505431039847e-02 -4.418823171530320698e-02 -9.515072862164182521e-02 -5.002111546745838244e-02 -4.676170231829530205e-02 6.081355870094246052e-02 5.926350111818767114e-02 -3.938085542535732508e-02 -5.533226014053227448e-02 -6.309379298186783280e-02 -5.547359644428997982e-02 -5.313713690568933057e-02 -6.853636828757264654e-02 -7.750930287085040782e-02 -2.020170258134062341e-02 -6.020969981494139062e-02 -4.846405692751364069e-02 -3.713956881397961762e-02 -7.828773641256735194e-02 -8.219494293580514865e-02 -7.380089811591991622e-02 -6.062620611969463114e-02 -1.024899818634763052e-02 -5.529366870012635687e-02 -8.071900016404671974e-02 -8.576799748749747154e-02 -7.495887404410335464e-02 -5.512268534516417094e-03 -4.771275944262275831e-02 -6.842346125321689676e-02 -7.717961412666898835e-02 -5.984921868859074262e-02 -5.470770746819285379e-02 -2.927414638435563154e-02 -7.178134183471748808e-02 -8.549867389784515659e-02 1.864046736906651777e-02 -8.609622595291936686e-02 -3.183324812361124773e-02 -3.640860832337341341e-02 -4.408048774922145724e-02 -6.143230134418360688e-02 -3.777711923669625077e-02 1.223822363694480712e-02 -2.990858831446595919e-03 3.931252606291482828e-03 -1.063567545606935588e-01 -6.491144586261378413e-02 -9.765610420591297469e-02 -7.090365844216148239e-02 -1.061752939175326579e-02 -3.931194429950223002e-02 -6.997185281216709851e-02 -5.026363238316894702e-03 -1.296920358295834338e-02 -9.150754440179328930e-02 -1.022270441491800186e-01 -9.614881544800792101e-02 -6.649614495364876421e-02 -8.783913859045455394e-03 -1.012155202608803761e-01 -8.607384673074874870e-02 -1.062688169737861649e-01 -2.767219546807318103e-02 -5.670054978379839711e-02 -6.172466137100506706e-02 6.563100309296571178e-02 -8.494789349401976608e-02 -2.716477312185175061e-02 -1.208384521468934721e-02 4.570632201687051949e-02 -9.238359964823314452e-02 -3.198388133757887331e-02 -5.997584397309222576e-02 -1.027870527489973818e-01 7.034366586953594291e-02 -4.069075070716996617e-02 4.084720419487818110e-02 -1.031935673190119973e-01 -1.047472627857403832e-01 -6.756141820382566276e-02 -6.991261049958746865e-02 7.374876311450183353e-02 -4.420084322423002005e-02 4.405795120847186275e-02 -7.989154539200046812e-02 -9.567134352928530205e-02 -7.996427183055250520e-02 -9.379021272359217010e-02 6.013272262713196398e-02 -5.349982001072545179e-02 4.867602648577282892e-02 4.167903280553844625e-02 -8.886147928432371057e-02 -1.036703653391735924e-01 -2.129185344312328060e-02 -6.878675967010081105e-02 -6.766494478344579899e-02 -2.912420237245662291e-02 -4.338966684295186838e-02 -1.907603726812823587e-03 3.872038928874543817e-02 3.435825454200599344e-02 -1.036121736525539017e-01 -8.304188455846407690e-02 -3.343964466057614687e-02 2.845169337232441101e-02 -1.051093380596560684e-01 4.413656092892968667e-03 -4.687092238455126125e-02 -5.181809682897874775e-02 -3.430491777972236728e-02 -7.755006772834090178e-02 4.719469133918498260e-02 -6.171852065741927768e-02 4.829841432323756650e-02 2.250368085693283532e-02 -9.119378051742384195e-02 -1.062980802410562337e-01 -9.352596422986765579e-02 -5.554844539242969476e-02 -8.999637846149356746e-02 -7.215943548551263798e-02 6.904604869168147474e-02 6.451930225494256765e-02 5.855236826647166465e-02 4.469497091601608296e-02 1.634140669696150516e-02 -8.990687552620671430e-02 -7.996622636817315999e-02 2.830556804353245859e-02 -7.723397807379424329e-02 -3.240340571181946766e-02 -6.089859976829842259e-02 2.197100962481431455e-02 5.613923468742796491e-02 4.592561603564316447e-02 -6.615816426018757135e-02 3.384227500657430859e-02 2.601235557447564156e-02 -1.048825377118430546e-01 -3.346280337247591746e-02 -2.329389